# vtk DataFile Version 3.0
Laplace Solution
ASCII
DATASET STRUCTURED_POINTS
DIMENSIONS 512 512 1
ORIGIN 0 0 0
SPACING 0.00195695 0.00195695 0
POINT_DATA 262144
SCALARS U double 1
LOOKUP_TABLE default
0
0
0
0
0
0
0
0
0
0
0
0
0
0
0
0
0
0
0
0
0
0
0
0
0
0
0
0
0
0
0
0
0
0
0
0
0
0
0
0
0
0
0
0
0
0
0
0
0
0
0
0
0
0
0
0
0
0
0
0
0
0
0
0
0
0
0
0
0
0
0
0
0
0
0
0
0
0
0
0
0
0
0
0
0
0
0
0
0
0
0
0
0
0
0
0
0
0
0
0
0
0
0
0
0
0
0
0
0
0
0
0
0
0
0
0
0
0
0
0
0
0
0
0
0
0
0
0
0
0
0
0
0
0
0
0
0
0
0
0
0
0
0
0
0
0
0
0
0
0
0
0
0
0
0
0
0
0
0
0
0
0
0
0
0
0
0
0
0
0
0
0
0
0
0
0
0
0
0
0
0
0
0
0
0
0
0
0
0
0
0
0
0
0
0
0
0
0
0
0
0
0
0
0
0
0
0
0
0
0
0
0
0
0
0
0
0
0
0
0
0
0
0
0
0
0
0
0
0
0
0
0
0
0
0
0
0
0
0
0
0
0
0
0
0
0
0
0
0
0
0
0
0
0
0
0
0
0
0
0
0
0
0
0
0
0
0
0
0
0
0
0
0
0
0
0
0
0
0
0
0
0
0
0
0
0
0
0
0
0
0
0
0
0
0
0
0
0
0
0
0
0
0
0
0
0
0
0
0
0
0
0
0
0
0
0
0
0
0
0
0
0
0
0
0
0
0
0
0
0
0
0
0
0
0
0
0
0
0
0
0
0
0
0
0
0
0
0
0
0
0
0
0
0
0
0
0
0
0
0
0
0
0
0
0
0
0
0
0
0
0
0
0
0
0
0
0
0
0
0
0
0
0
0
0
0
0
0
0
0
0
0
0
0
0
0
0
0
0
0
0
0
0
0
0
0
0
0
0
0
0
0
0
0
0
0
0
0
0
0
0
0
0
0
0
0
0
0
0
0
0
0
0
0
0
0
0
0
0
0
0
0
0
0
0
0
0
0
0
0
0
0
0
0
0
0
0
0
0
0
0
0
0
0
0
0
0
0
0
0
0
0
0
0
0
0
0
0
0
0
0
0
0
0
0
0
0
0
0
0
0
0
0
0
0
0
0
0
0
0
0
0
0
0
0
0
0
0
0
0
0
0
0
0.000147731
0.000295441
0.000443105
0.000590702
0.00073821
0.000885607
0.00103287
0.00117998
0.0013269
0.00147363
0.00162014
0.0017664
0.00191239
0.00205809
0.00220348
0.00234854
0.00249325
0.00263758
0.0027815
0.00292501
0.00306808
0.00321068
0.0033528
0.00349441
0.00363549
0.00377602
0.00391598
0.00405535
0.0041941
0.00433222
0.00446969
0.00460648
0.00474258
0.00487795
0.00501259
0.00514648
0.00527958
0.00541189
0.00554337
0.00567402
0.00580381
0.00593273
0.00606075
0.00618785
0.00631401
0.00643922
0.00656346
0.0066867
0.00680894
0.00693014
0.0070503
0.00716939
0.0072874
0.0074043
0.00752009
0.00763474
0.00774823
0.00786056
0.00797169
0.00808162
0.00819033
0.0082978
0.00840401
0.00850896
0.00861261
0.00871497
0.00881601
0.00891571
0.00901407
0.00911107
0.00920668
0.00930091
0.00939373
0.00948513
0.00957509
0.00966361
0.00975067
0.00983625
0.00992034
0.0100029
0.010084
0.0101636
0.0102416
0.0103181
0.010393
0.0104663
0.0105381
0.0106083
0.0106768
0.0107438
0.0108091
0.0108728
0.0109348
0.0109952
0.011054
0.011111
0.0111664
0.0112201
0.0112721
0.0113224
0.0113709
0.0114178
0.0114629
0.0115063
0.011548
0.0115879
0.0116261
0.0116625
0.0116971
0.01173
0.0117611
0.0117904
0.011818
0.0118437
0.0118677
0.0118899
0.0119102
0.0119288
0.0119456
0.0119605
0.0119737
0.011985
0.0119945
0.0120023
0.0120082
0.0120122
0.0120145
0.012015
0.0120136
0.0120104
0.0120054
0.0119986
0.01199
0.0119796
0.0119673
0.0119533
0.0119374
0.0119197
0.0119003
0.011879
0.0118559
0.0118311
0.0118044
0.011776
0.0117458
0.0117138
0.01168
0.0116445
0.0116072
0.0115682
0.0115274
0.0114849
0.0114406
0.0113946
0.0113469
0.0112974
0.0112463
0.0111934
0.0111389
0.0110827
0.0110248
0.0109652
0.010904
0.0108411
0.0107766
0.0107105
0.0106427
0.0105734
0.0105024
0.0104299
0.0103557
0.01028
0.0102028
0.010124
0.0100437
0.00996183
0.00987848
0.00979364
0.00970732
0.00961953
0.00953029
0.00943961
0.0093475
0.00925397
0.00915905
0.00906274
0.00896506
0.00886603
0.00876566
0.00866396
0.00856095
0.00845664
0.00835106
0.00824422
0.00813613
0.00802681
0.00791627
0.00780454
0.00769163
0.00757756
0.00746234
0.00734599
0.00722853
0.00710998
0.00699035
0.00686967
0.00674795
0.00662521
0.00650146
0.00637674
0.00625105
0.00612441
0.00599685
0.00586838
0.00573903
0.0056088
0.00547773
0.00534583
0.00521313
0.00507963
0.00494537
0.00481036
0.00467462
0.00453817
0.00440104
0.00426324
0.0041248
0.00398574
0.00384607
0.00370582
0.00356501
0.00342367
0.0032818
0.00313944
0.0029966
0.00285331
0.00270959
0.00256546
0.00242094
0.00227606
0.00213083
0.00198528
0.00183943
0.0016933
0.00154691
0.00140029
0.00125346
0.00110644
0.000959256
0.000811924
0.000664469
0.000516913
0.00036928
0.00022159
7.38671e-05
-7.38671e-05
-0.00022159
-0.00036928
-0.000516913
-0.000664469
-0.000811924
-0.000959256
-0.00110644
-0.00125346
-0.00140029
-0.00154691
-0.0016933
-0.00183943
-0.00198528
-0.00213083
-0.00227606
-0.00242094
-0.00256546
-0.00270959
-0.00285331
-0.0029966
-0.00313944
-0.0032818
-0.00342367
-0.00356501
-0.00370582
-0.00384607
-0.00398574
-0.0041248
-0.00426324
-0.00440104
-0.00453817
-0.00467462
-0.00481036
-0.00494537
-0.00507963
-0.00521313
-0.00534583
-0.00547773
-0.0056088
-0.00573903
-0.00586838
-0.00599685
-0.00612441
-0.00625105
-0.00637674
-0.00650146
-0.00662521
-0.00674795
-0.00686967
-0.00699035
-0.00710998
-0.00722853
-0.00734599
-0.00746234
-0.00757756
-0.00769163
-0.00780454
-0.00791627
-0.00802681
-0.00813613
-0.00824422
-0.00835106
-0.00845664
-0.00856095
-0.00866396
-0.00876566
-0.00886603
-0.00896506
-0.00906274
-0.00915905
-0.00925397
-0.0093475
-0.00943961
-0.00953029
-0.00961953
-0.00970732
-0.00979364
-0.00987848
-0.00996183
-0.0100437
-0.010124
-0.0102028
-0.01028
-0.0103557
-0.0104299
-0.0105024
-0.0105734
-0.0106427
-0.0107105
-0.0107766
-0.0108411
-0.010904
-0.0109652
-0.0110248
-0.0110827
-0.0111389
-0.0111934
-0.0112463
-0.0112974
-0.0113469
-0.0113946
-0.0114406
-0.0114849
-0.0115274
-0.0115682
-0.0116072
-0.0116445
-0.01168
-0.0117138
-0.0117458
-0.011776
-0.0118044
-0.0118311
-0.0118559
-0.011879
-0.0119003
-0.0119197
-0.0119374
-0.0119533
-0.0119673
-0.0119796
-0.01199
-0.0119986
-0.0120054
-0.0120104
-0.0120136
-0.012015
-0.0120145
-0.0120122
-0.0120082
-0.0120023
-0.0119945
-0.011985
-0.0119737
-0.0119605
-0.0119456
-0.0119288
-0.0119102
-0.0118899
-0.0118677
-0.0118437
-0.011818
-0.0117904
-0.0117611
-0.01173
-0.0116971
-0.0116625
-0.0116261
-0.0115879
-0.011548
-0.0115063
-0.0114629
-0.0114178
-0.0113709
-0.0113224
-0.0112721
-0.0112201
-0.0111664
-0.011111
-0.011054
-0.0109952
-0.0109348
-0.0108728
-0.0108091
-0.0107438
-0.0106768
-0.0106083
-0.0105381
-0.0104663
-0.010393
-0.0103181
-0.0102416
-0.0101636
-0.010084
-0.0100029
-0.00992034
-0.00983625
-0.00975067
-0.00966361
-0.00957509
-0.00948513
-0.00939373
-0.00930091
-0.00920668
-0.00911107
-0.00901407
-0.00891571
-0.00881601
-0.00871497
-0.00861261
-0.00850896
-0.00840401
-0.0082978
-0.00819033
-0.00808162
-0.00797169
-0.00786056
-0.00774823
-0.00763474
-0.00752009
-0.0074043
-0.0072874
-0.00716939
-0.0070503
-0.00693014
-0.00680894
-0.0066867
-0.00656346
-0.00643922
-0.00631401
-0.00618785
-0.00606075
-0.00593273
-0.00580381
-0.00567402
-0.00554337
-0.00541189
-0.00527958
-0.00514648
-0.00501259
-0.00487795
-0.00474258
-0.00460648
-0.00446969
-0.00433222
-0.0041941
-0.00405535
-0.00391598
-0.00377602
-0.00363549
-0.00349441
-0.0033528
-0.00321068
-0.00306808
-0.00292501
-0.0027815
-0.00263758
-0.00249325
-0.00234854
-0.00220348
-0.00205809
-0.00191239
-0.0017664
-0.00162014
-0.00147363
-0.0013269
-0.00117998
-0.00103287
-0.000885607
-0.00073821
-0.000590702
-0.000443105
-0.000295441
-0.000147731
0
0
0.000295441
0.000590836
0.000886143
0.00118132
0.00147631
0.00177108
0.00206558
0.00235977
0.00265361
0.00294704
0.00324003
0.00353252
0.00382449
0.00411587
0.00440664
0.00469673
0.00498612
0.00527475
0.00556259
0.00584958
0.00613569
0.00642087
0.00670508
0.00698828
0.00727042
0.00755147
0.00783137
0.00811008
0.00838757
0.00866379
0.00893871
0.00921227
0.00948444
0.00975517
0.0100244
0.0102922
0.0105584
0.010823
0.0110859
0.0113472
0.0116068
0.0118646
0.0121206
0.0123748
0.0126271
0.0128775
0.0131259
0.0133724
0.0136168
0.0138592
0.0140995
0.0143377
0.0145737
0.0148075
0.015039
0.0152683
0.0154953
0.0157199
0.0159422
0.016162
0.0163794
0.0165943
0.0168068
0.0170166
0.0172239
0.0174286
0.0176307
0.0178301
0.0180268
0.0182208
0.018412
0.0186004
0.018786
0.0189688
0.0191487
0.0193258
0.0194999
0.019671
0.0198392
0.0200044
0.0201665
0.0203256
0.0204817
0.0206346
0.0207844
0.0209311
0.0210746
0.0212149
0.021352
0.0214859
0.0216165
0.0217439
0.021868
0.0219888
0.0221062
0.0222203
0.0223311
0.0224385
0.0225425
0.022643
0.0227402
0.0228339
0.0229241
0.0230109
0.0230943
0.0231741
0.0232504
0.0233232
0.0233925
0.0234582
0.0235204
0.0235791
0.0236341
0.0236856
0.0237336
0.0237779
0.0238186
0.0238558
0.0238893
0.0239192
0.0239455
0.0239682
0.0239873
0.0240027
0.0240145
0.0240227
0.0240272
0.0240281
0.0240254
0.024019
0.0240091
0.0239954
0.0239782
0.0239573
0.0239328
0.0239047
0.023873
0.0238377
0.0237987
0.0237562
0.0237101
0.0236603
0.0236071
0.0235502
0.0234898
0.0234258
0.0233583
0.0232872
0.0232127
0.0231346
0.023053
0.022968
0.0228795
0.0227875
0.022692
0.0225932
0.0224909
0.0223852
0.0222761
0.0221637
0.0220479
0.0219288
0.0218064
0.0216806
0.0215516
0.0214194
0.0212839
0.0211451
0.0210032
0.0208581
0.0207099
0.0205585
0.020404
0.0202465
0.0200858
0.0199222
0.0197555
0.0195858
0.0194132
0.0192376
0.0190591
0.0188778
0.0186936
0.0185065
0.0183167
0.0181241
0.0179288
0.0177307
0.01753
0.0173266
0.0171206
0.016912
0.0167009
0.0164872
0.016271
0.0160524
0.0158313
0.0156079
0.0153821
0.015154
0.0149235
0.0146909
0.014456
0.0142189
0.0139797
0.0137383
0.0134949
0.0132494
0.0130019
0.0127525
0.0125011
0.0122479
0.0119928
0.0117359
0.0114772
0.0112168
0.0109546
0.0106909
0.0104255
0.0101585
0.00988999
0.00961998
0.00934853
0.00907566
0.00880142
0.00852584
0.00824898
0.00797087
0.00769156
0.00741108
0.00712949
0.00684681
0.0065631
0.0062784
0.00599275
0.00570619
0.00541877
0.00513053
0.00484152
0.00455177
0.00426134
0.00397026
0.00367858
0.00338634
0.00309359
0.00280038
0.00250674
0.00221272
0.00191837
0.00162373
0.00132884
0.00103375
0.000738504
0.000443147
0.000147723
-0.000147723
-0.000443147
-0.000738504
-0.00103375
-0.00132884
-0.00162373
-0.00191837
-0.00221272
-0.00250674
-0.00280038
-0.00309359
-0.00338634
-0.00367858
-0.00397026
-0.00426134
-0.00455177
-0.00484152
-0.00513053
-0.00541877
-0.00570619
-0.00599275
-0.0062784
-0.0065631
-0.00684681
-0.00712949
-0.00741108
-0.00769156
-0.00797087
-0.00824898
-0.00852584
-0.00880142
-0.00907566
-0.00934853
-0.00961998
-0.00988999
-0.0101585
-0.0104255
-0.0106909
-0.0109546
-0.0112168
-0.0114772
-0.0117359
-0.0119928
-0.0122479
-0.0125011
-0.0127525
-0.0130019
-0.0132494
-0.0134949
-0.0137383
-0.0139797
-0.0142189
-0.014456
-0.0146909
-0.0149235
-0.015154
-0.0153821
-0.0156079
-0.0158313
-0.0160524
-0.016271
-0.0164872
-0.0167009
-0.016912
-0.0171206
-0.0173266
-0.01753
-0.0177307
-0.0179288
-0.0181241
-0.0183167
-0.0185065
-0.0186936
-0.0188778
-0.0190591
-0.0192376
-0.0194132
-0.0195858
-0.0197555
-0.0199222
-0.0200858
-0.0202465
-0.020404
-0.0205585
-0.0207099
-0.0208581
-0.0210032
-0.0211451
-0.0212839
-0.0214194
-0.0215516
-0.0216806
-0.0218064
-0.0219288
-0.0220479
-0.0221637
-0.0222761
-0.0223852
-0.0224909
-0.0225932
-0.022692
-0.0227875
-0.0228795
-0.022968
-0.023053
-0.0231346
-0.0232127
-0.0232872
-0.0233583
-0.0234258
-0.0234898
-0.0235502
-0.0236071
-0.0236603
-0.0237101
-0.0237562
-0.0237987
-0.0238377
-0.023873
-0.0239047
-0.0239328
-0.0239573
-0.0239782
-0.0239954
-0.0240091
-0.024019
-0.0240254
-0.0240281
-0.0240272
-0.0240227
-0.0240145
-0.0240027
-0.0239873
-0.0239682
-0.0239455
-0.0239192
-0.0238893
-0.0238558
-0.0238186
-0.0237779
-0.0237336
-0.0236856
-0.0236341
-0.0235791
-0.0235204
-0.0234582
-0.0233925
-0.0233232
-0.0232504
-0.0231741
-0.0230943
-0.0230109
-0.0229241
-0.0228339
-0.0227402
-0.022643
-0.0225425
-0.0224385
-0.0223311
-0.0222203
-0.0221062
-0.0219888
-0.021868
-0.0217439
-0.0216165
-0.0214859
-0.021352
-0.0212149
-0.0210746
-0.0209311
-0.0207844
-0.0206346
-0.0204817
-0.0203256
-0.0201665
-0.0200044
-0.0198392
-0.019671
-0.0194999
-0.0193258
-0.0191487
-0.0189688
-0.018786
-0.0186004
-0.018412
-0.0182208
-0.0180268
-0.0178301
-0.0176307
-0.0174286
-0.0172239
-0.0170166
-0.0168068
-0.0165943
-0.0163794
-0.016162
-0.0159422
-0.0157199
-0.0154953
-0.0152683
-0.015039
-0.0148075
-0.0145737
-0.0143377
-0.0140995
-0.0138592
-0.0136168
-0.0133724
-0.0131259
-0.0128775
-0.0126271
-0.0123748
-0.0121206
-0.0118646
-0.0116068
-0.0113472
-0.0110859
-0.010823
-0.0105584
-0.0102922
-0.0100244
-0.00975517
-0.00948444
-0.00921227
-0.00893871
-0.00866379
-0.00838757
-0.00811008
-0.00783137
-0.00755147
-0.00727042
-0.00698828
-0.00670508
-0.00642087
-0.00613569
-0.00584958
-0.00556259
-0.00527475
-0.00498612
-0.00469673
-0.00440664
-0.00411587
-0.00382449
-0.00353252
-0.00324003
-0.00294704
-0.00265361
-0.00235977
-0.00206558
-0.00177108
-0.00147631
-0.00118132
-0.000886143
-0.000590836
-0.000295441
0
0
0.000443105
0.000886143
0.00132905
0.00177175
0.00221419
0.00265629
0.00309798
0.00353921
0.00397991
0.00442
0.00485943
0.00529812
0.00573601
0.00617303
0.00660912
0.00704421
0.00747824
0.00791113
0.00834283
0.00877327
0.00920238
0.0096301
0.0100564
0.0104811
0.0109043
0.0113258
0.0117456
0.0121636
0.0125798
0.0129941
0.0134064
0.0138167
0.0142249
0.0146309
0.0150347
0.0154363
0.0158355
0.0162324
0.0166268
0.0170186
0.0174079
0.0177946
0.0181786
0.0185598
0.0189382
0.0193138
0.0196864
0.0200561
0.0204227
0.0207862
0.0211466
0.0215038
0.0218578
0.0222084
0.0225557
0.0228996
0.02324
0.0235769
0.0239103
0.02424
0.024566
0.0248884
0.025207
0.0255217
0.0258326
0.0261396
0.0264427
0.0267418
0.0270368
0.0273277
0.0276145
0.0278971
0.0281755
0.0284496
0.0287195
0.028985
0.0292461
0.0295028
0.029755
0.0300028
0.030246
0.0304846
0.0307186
0.030948
0.0311727
0.0313927
0.0316079
0.0318184
0.032024
0.0322248
0.0324207
0.0326118
0.0327979
0.032979
0.0331552
0.0333263
0.0334924
0.0336535
0.0338094
0.0339603
0.034106
0.0342465
0.0343819
0.0345121
0.034637
0.0347567
0.0348712
0.0349804
0.0350843
0.0351829
0.0352762
0.0353641
0.0354468
0.035524
0.0355959
0.0356624
0.0357235
0.0357792
0.0358294
0.0358743
0.0359138
0.0359478
0.0359764
0.0359995
0.0360172
0.0360295
0.0360363
0.0360377
0.0360336
0.036024
0.0360091
0.0359886
0.0359628
0.0359315
0.0358947
0.0358526
0.035805
0.035752
0.0356936
0.0356298
0.0355606
0.035486
0.0354061
0.0353208
0.0352302
0.0351343
0.035033
0.0349265
0.0348146
0.0346975
0.0345752
0.0344476
0.0343149
0.0341769
0.0340338
0.0338855
0.0337321
0.0335736
0.03341
0.0332414
0.0330677
0.0328891
0.0327054
0.0325169
0.0323234
0.032125
0.0319218
0.0317137
0.0315009
0.0312833
0.0310609
0.0308339
0.0306022
0.0303659
0.0301249
0.0298795
0.0296295
0.029375
0.0291161
0.0288528
0.0285851
0.0283131
0.0280368
0.0277563
0.0274716
0.0271827
0.0268898
0.0265927
0.0262917
0.0259866
0.0256777
0.0253648
0.0250481
0.0247277
0.0244035
0.0240756
0.023744
0.0234089
0.0230702
0.0227281
0.0223825
0.0220335
0.0216812
0.0213256
0.0209668
0.0206049
0.0202398
0.0198716
0.0195005
0.0191264
0.0187494
0.0183695
0.0179869
0.0176016
0.0172136
0.016823
0.0164299
0.0160343
0.0156362
0.0152358
0.0148331
0.0144282
0.014021
0.0136118
0.0132005
0.0127872
0.0123719
0.0119548
0.0115359
0.0111152
0.0106929
0.0102689
0.00984341
0.00941641
0.00898799
0.00855821
0.00812713
0.00769483
0.00726136
0.0068268
0.0063912
0.00595463
0.00551717
0.00507887
0.0046398
0.00420004
0.00375963
0.00331866
0.00287719
0.00243528
0.00199301
0.00155043
0.00110762
0.000664636
0.000221557
-0.000221557
-0.000664636
-0.00110762
-0.00155043
-0.00199301
-0.00243528
-0.00287719
-0.00331866
-0.00375963
-0.00420004
-0.0046398
-0.00507887
-0.00551717
-0.00595463
-0.0063912
-0.0068268
-0.00726136
-0.00769483
-0.00812713
-0.00855821
-0.00898799
-0.00941641
-0.00984341
-0.0102689
-0.0106929
-0.0111152
-0.0115359
-0.0119548
-0.0123719
-0.0127872
-0.0132005
-0.0136118
-0.014021
-0.0144282
-0.0148331
-0.0152358
-0.0156362
-0.0160343
-0.0164299
-0.016823
-0.0172136
-0.0176016
-0.0179869
-0.0183695
-0.0187494
-0.0191264
-0.0195005
-0.0198716
-0.0202398
-0.0206049
-0.0209668
-0.0213256
-0.0216812
-0.0220335
-0.0223825
-0.0227281
-0.0230702
-0.0234089
-0.023744
-0.0240756
-0.0244035
-0.0247277
-0.0250481
-0.0253648
-0.0256777
-0.0259866
-0.0262917
-0.0265927
-0.0268898
-0.0271827
-0.0274716
-0.0277563
-0.0280368
-0.0283131
-0.0285851
-0.0288528
-0.0291161
-0.029375
-0.0296295
-0.0298795
-0.0301249
-0.0303659
-0.0306022
-0.0308339
-0.0310609
-0.0312833
-0.0315009
-0.0317137
-0.0319218
-0.032125
-0.0323234
-0.0325169
-0.0327054
-0.0328891
-0.0330677
-0.0332414
-0.03341
-0.0335736
-0.0337321
-0.0338855
-0.0340338
-0.0341769
-0.0343149
-0.0344476
-0.0345752
-0.0346975
-0.0348146
-0.0349265
-0.035033
-0.0351343
-0.0352302
-0.0353208
-0.0354061
-0.035486
-0.0355606
-0.0356298
-0.0356936
-0.035752
-0.035805
-0.0358526
-0.0358947
-0.0359315
-0.0359628
-0.0359886
-0.0360091
-0.036024
-0.0360336
-0.0360377
-0.0360363
-0.0360295
-0.0360172
-0.0359995
-0.0359764
-0.0359478
-0.0359138
-0.0358743
-0.0358294
-0.0357792
-0.0357235
-0.0356624
-0.0355959
-0.035524
-0.0354468
-0.0353641
-0.0352762
-0.0351829
-0.0350843
-0.0349804
-0.0348712
-0.0347567
-0.034637
-0.0345121
-0.0343819
-0.0342465
-0.034106
-0.0339603
-0.0338094
-0.0336535
-0.0334924
-0.0333263
-0.0331552
-0.032979
-0.0327979
-0.0326118
-0.0324207
-0.0322248
-0.032024
-0.0318184
-0.0316079
-0.0313927
-0.0311727
-0.030948
-0.0307186
-0.0304846
-0.030246
-0.0300028
-0.029755
-0.0295028
-0.0292461
-0.028985
-0.0287195
-0.0284496
-0.0281755
-0.0278971
-0.0276145
-0.0273277
-0.0270368
-0.0267418
-0.0264427
-0.0261396
-0.0258326
-0.0255217
-0.025207
-0.0248884
-0.024566
-0.02424
-0.0239103
-0.0235769
-0.02324
-0.0228996
-0.0225557
-0.0222084
-0.0218578
-0.0215038
-0.0211466
-0.0207862
-0.0204227
-0.0200561
-0.0196864
-0.0193138
-0.0189382
-0.0185598
-0.0181786
-0.0177946
-0.0174079
-0.0170186
-0.0166268
-0.0162324
-0.0158355
-0.0154363
-0.0150347
-0.0146309
-0.0142249
-0.0138167
-0.0134064
-0.0129941
-0.0125798
-0.0121636
-0.0117456
-0.0113258
-0.0109043
-0.0104811
-0.0100564
-0.0096301
-0.00920238
-0.00877327
-0.00834283
-0.00791113
-0.00747824
-0.00704421
-0.00660912
-0.00617303
-0.00573601
-0.00529812
-0.00485943
-0.00442
-0.00397991
-0.00353921
-0.00309798
-0.00265629
-0.00221419
-0.00177175
-0.00132905
-0.000886143
-0.000443105
0
0
0.000590702
0.00118132
0.00177175
0.00236192
0.00295173
0.00354109
0.00412992
0.00471812
0.00530561
0.0058923
0.0064781
0.00706291
0.00764666
0.00822926
0.00881061
0.00939063
0.00996922
0.0105463
0.0111218
0.0116956
0.0122677
0.0128379
0.0134061
0.0139723
0.0145365
0.0150984
0.015658
0.0162153
0.0167701
0.0173223
0.017872
0.018419
0.0189631
0.0195044
0.0200428
0.0205781
0.0211103
0.0216394
0.0221651
0.0226875
0.0232065
0.0237219
0.0242338
0.024742
0.0252465
0.0257472
0.0262439
0.0267367
0.0272255
0.0277101
0.0281905
0.0286667
0.0291386
0.029606
0.030069
0.0305274
0.0309812
0.0314303
0.0318747
0.0323143
0.0327489
0.0331786
0.0336033
0.034023
0.0344374
0.0348467
0.0352507
0.0356494
0.0360427
0.0364305
0.0368128
0.0371896
0.0375607
0.0379262
0.0382859
0.0386398
0.0389879
0.0393301
0.0396664
0.0399966
0.0403208
0.040639
0.0409509
0.0412567
0.0415562
0.0418495
0.0421364
0.042417
0.0426911
0.0429588
0.04322
0.0434747
0.0437228
0.0439643
0.0441991
0.0444272
0.0446487
0.0448634
0.0450713
0.0452724
0.0454666
0.045654
0.0458344
0.046008
0.0461746
0.0463342
0.0464868
0.0466323
0.0467708
0.0469023
0.0470266
0.0471439
0.047254
0.047357
0.0474528
0.0475414
0.0476229
0.0476971
0.0477642
0.047824
0.0478766
0.0479219
0.04796
0.0479909
0.0480145
0.0480308
0.0480399
0.0480417
0.0480363
0.0480236
0.0480036
0.0479764
0.0479419
0.0479002
0.0478512
0.047795
0.0477316
0.0476609
0.0475831
0.047498
0.0474058
0.0473064
0.0471998
0.0470861
0.0469653
0.0468374
0.0467025
0.0465604
0.0464113
0.0462552
0.0460921
0.0459221
0.0457451
0.0455611
0.0453703
0.0451727
0.0449682
0.0447569
0.0445388
0.044314
0.0440825
0.0438443
0.0435996
0.0433482
0.0430902
0.0428258
0.0425549
0.0422775
0.0419938
0.0417037
0.0414073
0.0411046
0.0407957
0.0404807
0.0401595
0.0398323
0.039499
0.0391598
0.0388146
0.0384636
0.0381068
0.0377442
0.0373759
0.0370019
0.0366223
0.0362373
0.0358467
0.0354507
0.0350494
0.0346427
0.0342308
0.0338138
0.0333916
0.0329644
0.0325322
0.0320951
0.0316531
0.0312064
0.0307549
0.0302988
0.0298381
0.0293729
0.0289032
0.0284292
0.0279508
0.0274683
0.0269816
0.0264908
0.025996
0.0254973
0.0249947
0.0244884
0.0239783
0.0234647
0.0229474
0.0224267
0.0219026
0.0213753
0.0208446
0.0203108
0.019774
0.0192342
0.0186914
0.0181458
0.0175975
0.0170465
0.016493
0.0159369
0.0153785
0.0148177
0.0142547
0.0136895
0.0131222
0.012553
0.0119819
0.0114089
0.0108343
0.010258
0.00968011
0.00910079
0.00852009
0.00793811
0.00735493
0.00677063
0.00618531
0.00559906
0.00501196
0.0044241
0.00383558
0.00324647
0.00265687
0.00206687
0.00147656
0.000886026
0.000295357
-0.000295357
-0.000886026
-0.00147656
-0.00206687
-0.00265687
-0.00324647
-0.00383558
-0.0044241
-0.00501196
-0.00559906
-0.00618531
-0.00677063
-0.00735493
-0.00793811
-0.00852009
-0.00910079
-0.00968011
-0.010258
-0.0108343
-0.0114089
-0.0119819
-0.012553
-0.0131222
-0.0136895
-0.0142547
-0.0148177
-0.0153785
-0.0159369
-0.016493
-0.0170465
-0.0175975
-0.0181458
-0.0186914
-0.0192342
-0.019774
-0.0203108
-0.0208446
-0.0213753
-0.0219026
-0.0224267
-0.0229474
-0.0234647
-0.0239783
-0.0244884
-0.0249947
-0.0254973
-0.025996
-0.0264908
-0.0269816
-0.0274683
-0.0279508
-0.0284292
-0.0289032
-0.0293729
-0.0298381
-0.0302988
-0.0307549
-0.0312064
-0.0316531
-0.0320951
-0.0325322
-0.0329644
-0.0333916
-0.0338138
-0.0342308
-0.0346427
-0.0350494
-0.0354507
-0.0358467
-0.0362373
-0.0366223
-0.0370019
-0.0373759
-0.0377442
-0.0381068
-0.0384636
-0.0388146
-0.0391598
-0.039499
-0.0398323
-0.0401595
-0.0404807
-0.0407957
-0.0411046
-0.0414073
-0.0417037
-0.0419938
-0.0422775
-0.0425549
-0.0428258
-0.0430902
-0.0433482
-0.0435996
-0.0438443
-0.0440825
-0.044314
-0.0445388
-0.0447569
-0.0449682
-0.0451727
-0.0453703
-0.0455611
-0.0457451
-0.0459221
-0.0460921
-0.0462552
-0.0464113
-0.0465604
-0.0467025
-0.0468374
-0.0469653
-0.0470861
-0.0471998
-0.0473064
-0.0474058
-0.047498
-0.0475831
-0.0476609
-0.0477316
-0.047795
-0.0478512
-0.0479002
-0.0479419
-0.0479764
-0.0480036
-0.0480236
-0.0480363
-0.0480417
-0.0480399
-0.0480308
-0.0480145
-0.0479909
-0.04796
-0.0479219
-0.0478766
-0.047824
-0.0477642
-0.0476971
-0.0476229
-0.0475414
-0.0474528
-0.047357
-0.047254
-0.0471439
-0.0470266
-0.0469023
-0.0467708
-0.0466323
-0.0464868
-0.0463342
-0.0461746
-0.046008
-0.0458344
-0.045654
-0.0454666
-0.0452724
-0.0450713
-0.0448634
-0.0446487
-0.0444272
-0.0441991
-0.0439643
-0.0437228
-0.0434747
-0.04322
-0.0429588
-0.0426911
-0.042417
-0.0421364
-0.0418495
-0.0415562
-0.0412567
-0.0409509
-0.040639
-0.0403208
-0.0399966
-0.0396664
-0.0393301
-0.0389879
-0.0386398
-0.0382859
-0.0379262
-0.0375607
-0.0371896
-0.0368128
-0.0364305
-0.0360427
-0.0356494
-0.0352507
-0.0348467
-0.0344374
-0.034023
-0.0336033
-0.0331786
-0.0327489
-0.0323143
-0.0318747
-0.0314303
-0.0309812
-0.0305274
-0.030069
-0.029606
-0.0291386
-0.0286667
-0.0281905
-0.0277101
-0.0272255
-0.0267367
-0.0262439
-0.0257472
-0.0252465
-0.024742
-0.0242338
-0.0237219
-0.0232065
-0.0226875
-0.0221651
-0.0216394
-0.0211103
-0.0205781
-0.0200428
-0.0195044
-0.0189631
-0.018419
-0.017872
-0.0173223
-0.0167701
-0.0162153
-0.015658
-0.0150984
-0.0145365
-0.0139723
-0.0134061
-0.0128379
-0.0122677
-0.0116956
-0.0111218
-0.0105463
-0.00996922
-0.00939063
-0.00881061
-0.00822926
-0.00764666
-0.00706291
-0.0064781
-0.0058923
-0.00530561
-0.00471812
-0.00412992
-0.00354109
-0.00295173
-0.00236192
-0.00177175
-0.00118132
-0.000590702
0
0
0.00073821
0.00147631
0.00221419
0.00295173
0.00368882
0.00442536
0.00516123
0.00589631
0.00663051
0.0073637
0.00809578
0.00882664
0.00955616
0.0102842
0.0110108
0.0117356
0.0124587
0.0131799
0.0138991
0.0146162
0.0153311
0.0160437
0.0167538
0.0174615
0.0181664
0.0188687
0.0195681
0.0202645
0.0209578
0.021648
0.0223349
0.0230185
0.0236985
0.024375
0.0250478
0.0257168
0.0263819
0.0270431
0.0277001
0.028353
0.0290015
0.0296457
0.0302854
0.0309205
0.031551
0.0321766
0.0327975
0.0334133
0.0340241
0.0346298
0.0352302
0.0358253
0.036415
0.0369991
0.0375777
0.0381506
0.0387177
0.039279
0.0398344
0.0403837
0.0409269
0.0414639
0.0419947
0.0425191
0.043037
0.0435485
0.0440534
0.0445516
0.0450431
0.0455278
0.0460056
0.0464764
0.0469402
0.047397
0.0478465
0.0482888
0.0487239
0.0491515
0.0495717
0.0499844
0.0503896
0.0507872
0.051177
0.0515592
0.0519335
0.0523
0.0526586
0.0530092
0.0533518
0.0536864
0.0540128
0.054331
0.0546411
0.0549429
0.0552363
0.0555215
0.0557982
0.0560665
0.0563263
0.0565776
0.0568204
0.0570545
0.05728
0.0574969
0.0577051
0.0579046
0.0580953
0.0582772
0.0584503
0.0586146
0.05877
0.0589165
0.0590541
0.0591828
0.0593025
0.0594133
0.0595151
0.0596079
0.0596917
0.0597664
0.0598322
0.0598888
0.0599365
0.059975
0.0600045
0.0600249
0.0600363
0.0600385
0.0600317
0.0600158
0.0599909
0.0599569
0.0599138
0.0598616
0.0598004
0.0597302
0.0596509
0.0595626
0.0594653
0.059359
0.0592438
0.0591196
0.0589864
0.0588443
0.0586934
0.0585335
0.0583648
0.0581873
0.058001
0.0578059
0.0576021
0.0573896
0.0571684
0.0569385
0.0567001
0.056453
0.0561975
0.0559334
0.0556609
0.0553799
0.0550906
0.054793
0.0544871
0.0541729
0.0538506
0.0535201
0.0531815
0.0528349
0.0524803
0.0521177
0.0517473
0.0513691
0.0509831
0.0505894
0.050188
0.049779
0.0493625
0.0489386
0.0485073
0.0480686
0.0476226
0.0471695
0.0467092
0.0462419
0.0457676
0.0452863
0.0447982
0.0443033
0.0438018
0.0432936
0.0427789
0.0422577
0.0417301
0.0411962
0.040656
0.0401098
0.0395574
0.0389991
0.0384349
0.0378649
0.0372891
0.0367077
0.0361208
0.0355284
0.0349306
0.0343276
0.0337193
0.033106
0.0324877
0.0318644
0.0312363
0.0306035
0.0299661
0.0293242
0.0286778
0.0280271
0.0273721
0.026713
0.0260499
0.0253828
0.0247119
0.0240372
0.023359
0.0226771
0.0219919
0.0213033
0.0206115
0.0199166
0.0192187
0.0185179
0.0178143
0.017108
0.0163991
0.0156877
0.0149739
0.0142579
0.0135398
0.0128195
0.0120974
0.0113734
0.0106477
0.00992039
0.00919157
0.00846137
0.00772989
0.00699724
0.00626353
0.00552887
0.00479338
0.00405717
0.00332034
0.002583
0.00184528
0.00110728
0.000369112
-0.000369112
-0.00110728
-0.00184528
-0.002583
-0.00332034
-0.00405717
-0.00479338
-0.00552887
-0.00626353
-0.00699724
-0.00772989
-0.00846137
-0.00919157
-0.00992039
-0.0106477
-0.0113734
-0.0120974
-0.0128195
-0.0135398
-0.0142579
-0.0149739
-0.0156877
-0.0163991
-0.017108
-0.0178143
-0.0185179
-0.0192187
-0.0199166
-0.0206115
-0.0213033
-0.0219919
-0.0226771
-0.023359
-0.0240372
-0.0247119
-0.0253828
-0.0260499
-0.026713
-0.0273721
-0.0280271
-0.0286778
-0.0293242
-0.0299661
-0.0306035
-0.0312363
-0.0318644
-0.0324877
-0.033106
-0.0337193
-0.0343276
-0.0349306
-0.0355284
-0.0361208
-0.0367077
-0.0372891
-0.0378649
-0.0384349
-0.0389991
-0.0395574
-0.0401098
-0.040656
-0.0411962
-0.0417301
-0.0422577
-0.0427789
-0.0432936
-0.0438018
-0.0443033
-0.0447982
-0.0452863
-0.0457676
-0.0462419
-0.0467092
-0.0471695
-0.0476226
-0.0480686
-0.0485073
-0.0489386
-0.0493625
-0.049779
-0.050188
-0.0505894
-0.0509831
-0.0513691
-0.0517473
-0.0521177
-0.0524803
-0.0528349
-0.0531815
-0.0535201
-0.0538506
-0.0541729
-0.0544871
-0.054793
-0.0550906
-0.0553799
-0.0556609
-0.0559334
-0.0561975
-0.056453
-0.0567001
-0.0569385
-0.0571684
-0.0573896
-0.0576021
-0.0578059
-0.058001
-0.0581873
-0.0583648
-0.0585335
-0.0586934
-0.0588443
-0.0589864
-0.0591196
-0.0592438
-0.059359
-0.0594653
-0.0595626
-0.0596509
-0.0597302
-0.0598004
-0.0598616
-0.0599138
-0.0599569
-0.0599909
-0.0600158
-0.0600317
-0.0600385
-0.0600363
-0.0600249
-0.0600045
-0.059975
-0.0599365
-0.0598888
-0.0598322
-0.0597664
-0.0596917
-0.0596079
-0.0595151
-0.0594133
-0.0593025
-0.0591828
-0.0590541
-0.0589165
-0.05877
-0.0586146
-0.0584503
-0.0582772
-0.0580953
-0.0579046
-0.0577051
-0.0574969
-0.05728
-0.0570545
-0.0568204
-0.0565776
-0.0563263
-0.0560665
-0.0557982
-0.0555215
-0.0552363
-0.0549429
-0.0546411
-0.054331
-0.0540128
-0.0536864
-0.0533518
-0.0530092
-0.0526586
-0.0523
-0.0519335
-0.0515592
-0.051177
-0.0507872
-0.0503896
-0.0499844
-0.0495717
-0.0491515
-0.0487239
-0.0482888
-0.0478465
-0.047397
-0.0469402
-0.0464764
-0.0460056
-0.0455278
-0.0450431
-0.0445516
-0.0440534
-0.0435485
-0.043037
-0.0425191
-0.0419947
-0.0414639
-0.0409269
-0.0403837
-0.0398344
-0.039279
-0.0387177
-0.0381506
-0.0375777
-0.0369991
-0.036415
-0.0358253
-0.0352302
-0.0346298
-0.0340241
-0.0334133
-0.0327975
-0.0321766
-0.031551
-0.0309205
-0.0302854
-0.0296457
-0.0290015
-0.028353
-0.0277001
-0.0270431
-0.0263819
-0.0257168
-0.0250478
-0.024375
-0.0236985
-0.0230185
-0.0223349
-0.021648
-0.0209578
-0.0202645
-0.0195681
-0.0188687
-0.0181664
-0.0174615
-0.0167538
-0.0160437
-0.0153311
-0.0146162
-0.0138991
-0.0131799
-0.0124587
-0.0117356
-0.0110108
-0.0102842
-0.00955616
-0.00882664
-0.00809578
-0.0073637
-0.00663051
-0.00589631
-0.00516123
-0.00442536
-0.00368882
-0.00295173
-0.00221419
-0.00147631
-0.00073821
0
0
0.000885607
0.00177108
0.00265629
0.00354109
0.00442536
0.00530896
0.00619175
0.00707361
0.00795441
0.00883399
0.00971225
0.010589
0.0114642
0.0123377
0.0132093
0.0140788
0.0149463
0.0158115
0.0166743
0.0175346
0.0183922
0.0192471
0.020099
0.0209479
0.0217937
0.0226361
0.0234752
0.0243106
0.0251424
0.0259704
0.0267945
0.0276145
0.0284304
0.0292419
0.030049
0.0308516
0.0316495
0.0324427
0.0332309
0.0340141
0.0347922
0.035565
0.0363324
0.0370943
0.0378507
0.0386013
0.039346
0.0400849
0.0408176
0.0415442
0.0422645
0.0429784
0.0436858
0.0443866
0.0450808
0.045768
0.0464484
0.0471218
0.047788
0.048447
0.0490986
0.0497429
0.0503796
0.0510087
0.0516301
0.0522437
0.0528494
0.0534471
0.0540367
0.0546182
0.0551914
0.0557563
0.0563127
0.0568606
0.0573999
0.0579305
0.0584524
0.0589655
0.0594696
0.0599647
0.0604508
0.0609277
0.0613954
0.0618539
0.0623029
0.0627426
0.0631728
0.0635934
0.0640044
0.0644058
0.0647974
0.0651792
0.0655511
0.0659132
0.0662652
0.0666073
0.0669393
0.0672611
0.0675728
0.0678743
0.0681655
0.0684464
0.068717
0.0689772
0.0692269
0.0694662
0.069695
0.0699132
0.0701209
0.070318
0.0705044
0.0706802
0.0708453
0.0709997
0.0711433
0.0712762
0.0713983
0.0715096
0.0716102
0.0716998
0.0717787
0.0718467
0.0719038
0.0719501
0.0719854
0.0720099
0.0720236
0.0720263
0.0720181
0.0719991
0.0719691
0.0719283
0.0718766
0.071814
0.0717406
0.0716563
0.0715612
0.0714553
0.0713386
0.0712111
0.0710728
0.0709238
0.0707641
0.0705936
0.0704125
0.0702208
0.0700184
0.0698054
0.0695819
0.0693479
0.0691034
0.0688484
0.068583
0.0683073
0.0680212
0.0677249
0.0674183