# vtk DataFile Version 3.0
Laplace Solution
ASCII
DATASET STRUCTURED_POINTS
DIMENSIONS 128 128 1
ORIGIN 0 0 0
SPACING 0.00787402 0.00787402 0
POINT_DATA 16384
SCALARS U double 1
LOOKUP_TABLE default
0
0
0
0
0
0
0
0
0
0
0
0
0
0
0
0
0
0
0
0
0
0
0
0
0
0
0
0
0
0
0
0
0
0
0
0
0
0
0
0
0
0
0
0
0
0
0
0
0
0
0
0
0
0
0
0
0
0
0
0
0
0
0
0
0
0
0
0
0
0
0
0
0
0
0
0
0
0
0
0
0
0
0
0
0
0
0
0
0
0
0
0
0
0
0
0
0
0
0
0
0
0
0
0
0
0
0
0
0
0
0
0
0
0
0
0
0
0
0
0
0
0
0
0
0
0
0
0
0
0.00244582
0.00488565
0.00731352
0.0097235
0.0121097
0.0144662
0.0167874
0.0190674
0.0213008
0.0234821
0.0256059
0.0276671
0.0296605
0.0315814
0.033425
0.0351867
0.0368624
0.0384479
0.0399392
0.0413329
0.0426254
0.0438135
0.0448945
0.0458656
0.0467244
0.0474689
0.0480973
0.0486079
0.0489996
0.0492714
0.0494226
0.0494529
0.0493621
0.0491506
0.0488187
0.0483674
0.0477977
0.0471111
0.0463092
0.0453939
0.0443676
0.0432327
0.041992
0.0406485
0.0392055
0.0376667
0.0360356
0.0343163
0.0325131
0.0306303
0.0286726
0.0266447
0.0245515
0.0223983
0.0201903
0.0179329
0.0156316
0.013292
0.0109199
0.00852111
0.00610145
0.00366685
0.00122328
-0.00122328
-0.00366685
-0.00610145
-0.00852111
-0.0109199
-0.013292
-0.0156316
-0.0179329
-0.0201903
-0.0223983
-0.0245515
-0.0266447
-0.0286726
-0.0306303
-0.0325131
-0.0343163
-0.0360356
-0.0376667
-0.0392055
-0.0406485
-0.041992
-0.0432327
-0.0443676
-0.0453939
-0.0463092
-0.0471111
-0.0477977
-0.0483674
-0.0488187
-0.0491506
-0.0493621
-0.0494529
-0.0494226
-0.0492714
-0.0489996
-0.0486079
-0.0480973
-0.0474689
-0.0467244
-0.0458656
-0.0448945
-0.0438135
-0.0426254
-0.0413329
-0.0399392
-0.0384479
-0.0368624
-0.0351867
-0.033425
-0.0315814
-0.0296605
-0.0276671
-0.0256059
-0.0234821
-0.0213008
-0.0190674
-0.0167874
-0.0144662
-0.0121097
-0.0097235
-0.00731352
-0.00488565
-0.00244582
0
0
0.00488565
0.00975933
0.0146091
0.0194232
0.0241897
0.028897
0.0335337
0.0380882
0.0425496
0.0469068
0.0511492
0.0552664
0.0592485
0.0630855
0.0667681
0.0702874
0.0736346
0.0768016
0.0797807
0.0825646
0.0851464
0.0875199
0.0896791
0.0916189
0.0933345
0.0948217
0.0960769
0.0970969
0.0978793
0.0984222
0.0987243
0.0987847
0.0986034
0.0981808
0.097518
0.0966165
0.0954785
0.0941069
0.092505
0.0906768
0.0886266
0.0863596
0.0838812
0.0811975
0.0783152
0.0752411
0.071983
0.0685487
0.0649467
0.0611857
0.057275
0.0532241
0.049043
0.0447418
0.0403312
0.0358219
0.0312249
0.0265515
0.0218131
0.0170214
0.012188
0.00732473
0.00244357
-0.00244357
-0.00732473
-0.012188
-0.0170214
-0.0218131
-0.0265515
-0.0312249
-0.0358219
-0.0403312
-0.0447418
-0.049043
-0.0532241
-0.057275
-0.0611857
-0.0649467
-0.0685487
-0.071983
-0.0752411
-0.0783152
-0.0811975
-0.0838812
-0.0863596
-0.0886266
-0.0906768
-0.092505
-0.0941069
-0.0954785
-0.0966165
-0.097518
-0.0981808
-0.0986034
-0.0987847
-0.0987243
-0.0984222
-0.0978793
-0.0970969
-0.0960769
-0.0948217
-0.0933345
-0.0916189
-0.0896791
-0.0875199
-0.0851464
-0.0825646
-0.0797807
-0.0768016
-0.0736346
-0.0702874
-0.0667681
-0.0630855
-0.0592485
-0.0552664
-0.0511492
-0.0469068
-0.0425496
-0.0380882
-0.0335337
-0.028897
-0.0241897
-0.0194232
-0.0146091
-0.00975933
-0.00488565
0
0
0.00731352
0.0146091
0.021869
0.0290754
0.0362106
0.0432572
0.0501979
0.0570158
0.0636941
0.0702166
0.0765673
0.0827306
0.0886914
0.0944352
0.0999479
0.105216
0.110227
0.114967
0.119427
0.123594
0.127459
0.131012
0.134244
0.137148
0.139716
0.141942
0.143821
0.145348
0.14652
0.147332
0.147784
0.147875
0.147603
0.146971
0.145979
0.144629
0.142926
0.140872
0.138475
0.135738
0.132669
0.129275
0.125565
0.121548
0.117233
0.112631
0.107754
0.102613
0.0972213
0.0915913
0.0857372
0.0796733
0.0734144
0.0669759
0.0603734
0.0536232
0.0467418
0.039746
0.032653
0.02548
0.0182447
0.0109647
0.00365788
-0.00365788
-0.0109647
-0.0182447
-0.02548
-0.032653
-0.039746
-0.0467418
-0.0536232
-0.0603734
-0.0669759
-0.0734144
-0.0796733
-0.0857372
-0.0915913
-0.0972213
-0.102613
-0.107754
-0.112631
-0.117233
-0.121548
-0.125565
-0.129275
-0.132669
-0.135738
-0.138475
-0.140872
-0.142926
-0.144629
-0.145979
-0.146971
-0.147603
-0.147875
-0.147784
-0.147332
-0.14652
-0.145348
-0.143821
-0.141942
-0.139716
-0.137148
-0.134244
-0.131012
-0.127459
-0.123594
-0.119427
-0.114967
-0.110227
-0.105216
-0.0999479
-0.0944352
-0.0886914
-0.0827306
-0.0765673
-0.0702166
-0.0636941
-0.0570158
-0.0501979
-0.0432572
-0.0362106
-0.0290754
-0.021869
-0.0146091
-0.00731352
0
0
0.0097235
0.0194232
0.0290754
0.0386564
0.0481428
0.0575114
0.0667393
0.0758038
0.0846829
0.0933547
0.101798
0.109992
0.117917
0.125554
0.132883
0.139887
0.146549
0.152852
0.158781
0.164321
0.16946
0.174184
0.178481
0.182342
0.185756
0.188716
0.191214
0.193244
0.194801
0.195882
0.196483
0.196603
0.196242
0.195401
0.194082
0.192288
0.190023
0.187293
0.184105
0.180466
0.176386
0.171874
0.166942
0.161601
0.155864
0.149746
0.143262
0.136427
0.129258
0.121773
0.11399
0.105928
0.0976062
0.089046
0.0802679
0.0712934
0.0621444
0.0528433
0.0434129
0.0338762
0.0242567
0.0145778
0.00486324
-0.00486324
-0.0145778
-0.0242567
-0.0338762
-0.0434129
-0.0528433
-0.0621444
-0.0712934
-0.0802679
-0.089046
-0.0976062
-0.105928
-0.11399
-0.121773
-0.129258
-0.136427
-0.143262
-0.149746
-0.155864
-0.161601
-0.166942
-0.171874
-0.176386
-0.180466
-0.184105
-0.187293
-0.190023
-0.192288
-0.194082
-0.195401
-0.196242
-0.196603
-0.196483
-0.195882
-0.194801
-0.193244
-0.191214
-0.188716
-0.185756
-0.182342
-0.178481
-0.174184
-0.16946
-0.164321
-0.158781
-0.152852
-0.146549
-0.139887
-0.132883
-0.125554
-0.117917
-0.109992
-0.101798
-0.0933547
-0.0846829
-0.0758038
-0.0667393
-0.0575114
-0.0481428
-0.0386564
-0.0290754
-0.0194232
-0.0097235
0
0
0.0121097
0.0241897
0.0362106
0.0481428
0.0599572
0.0716249
0.0831173
0.0944063
0.105464
0.116264
0.12678
0.136985
0.146855
0.156365
0.165493
0.174216
0.182512
0.190362
0.197746
0.204647
0.211046
0.216929
0.222281
0.227089
0.231341
0.235027
0.238138
0.240667
0.242606
0.243952
0.2447
0.24485
0.244401
0.243353
0.24171
0.239476
0.236655
0.233256
0.229285
0.224754
0.219672
0.214053
0.20791
0.201258
0.194114
0.186494
0.178419
0.169906
0.160978
0.151656
0.141963
0.131923
0.121559
0.110898
0.0999659
0.088789
0.0773948
0.0658112
0.0540666
0.0421896
0.0302094
0.0181553
0.00605669
-0.00605669
-0.0181553
-0.0302094
-0.0421896
-0.0540666
-0.0658112
-0.0773948
-0.088789
-0.0999659
-0.110898
-0.121559
-0.131923
-0.141963
-0.151656
-0.160978
-0.169906
-0.178419
-0.186494
-0.194114
-0.201258
-0.20791
-0.214053
-0.219672
-0.224754
-0.229285
-0.233256
-0.236655
-0.239476
-0.24171
-0.243353
-0.244401
-0.24485
-0.2447
-0.243952
-0.242606
-0.240667
-0.238138
-0.235027
-0.231341
-0.227089
-0.222281
-0.216929
-0.211046
-0.204647
-0.197746
-0.190362
-0.182512
-0.174216
-0.165493
-0.156365
-0.146855
-0.136985
-0.12678
-0.116264
-0.105464
-0.0944063
-0.0831173
-0.0716249
-0.0599572
-0.0481428
-0.0362106
-0.0241897
-0.0121097
0
0
0.0144662
0.028897
0.0432572
0.0575114
0.0716249
0.0855631
0.099292
0.112778
0.125988
0.138889
0.151451
0.163642
0.175433
0.186794
0.197698
0.208118
0.218029
0.227407
0.236228
0.244471
0.252116
0.259143
0.265537
0.27128
0.27636
0.280764
0.28448
0.287501
0.289817
0.291425
0.292319
0.292498
0.291961
0.29071
0.288747
0.286078
0.282709
0.278647
0.273904
0.268491
0.26242
0.255708
0.248369
0.240423
0.231888
0.222786
0.213139
0.20297
0.192305
0.181169
0.169589
0.157595
0.145215
0.132479
0.119419
0.106067
0.0924559
0.0786181
0.0645879
0.0503997
0.0360881
0.0216883
0.00723533
-0.00723533
-0.0216883
-0.0360881
-0.0503997
-0.0645879
-0.0786181
-0.0924559
-0.106067
-0.119419
-0.132479
-0.145215
-0.157595
-0.169589
-0.181169
-0.192305
-0.20297
-0.213139
-0.222786
-0.231888
-0.240423
-0.248369
-0.255708
-0.26242
-0.268491
-0.273904
-0.278647
-0.282709
-0.286078
-0.288747
-0.29071
-0.291961
-0.292498
-0.292319
-0.291425
-0.289817
-0.287501
-0.28448
-0.280764
-0.27636
-0.27128
-0.265537
-0.259143
-0.252116
-0.244471
-0.236228
-0.227407
-0.218029
-0.208118
-0.197698
-0.186794
-0.175433
-0.163642
-0.151451
-0.138889
-0.125988
-0.112778
-0.099292
-0.0855631
-0.0716249
-0.0575114
-0.0432572
-0.028897
-0.0144662
0
0
0.0167874
0.0335337
0.0501979
0.0667393
0.0831173
0.099292
0.115224
0.130873
0.146203
0.161174
0.175752
0.189899
0.203581
0.216765
0.229419
0.241512
0.253013
0.263895
0.274131
0.283697
0.292568
0.300723
0.308143
0.314808
0.320703
0.325813
0.330126
0.333631
0.336319
0.338185
0.339223
0.33943
0.338807
0.337355
0.335078
0.33198
0.32807
0.323357
0.317853
0.311571
0.304526
0.296737
0.288221
0.279
0.269096
0.258533
0.247338
0.235537
0.223161
0.210238
0.1968
0.182881
0.168515
0.153736
0.13858
0.123086
0.107291
0.0912326
0.0749512
0.0584865
0.0418786
0.0251682
0.00839625
-0.00839625
-0.0251682
-0.0418786
-0.0584865
-0.0749512
-0.0912326
-0.107291
-0.123086
-0.13858
-0.153736
-0.168515
-0.182881
-0.1968
-0.210238
-0.223161
-0.235537
-0.247338
-0.258533
-0.269096
-0.279
-0.288221
-0.296737
-0.304526
-0.311571
-0.317853
-0.323357
-0.32807
-0.33198
-0.335078
-0.337355
-0.338807
-0.33943
-0.339223
-0.338185
-0.336319
-0.333631
-0.330126
-0.325813
-0.320703
-0.314808
-0.308143
-0.300723
-0.292568
-0.283697
-0.274131
-0.263895
-0.253013
-0.241512
-0.229419
-0.216765
-0.203581
-0.189899
-0.175752
-0.161174
-0.146203
-0.130873
-0.115224
-0.099292
-0.0831173
-0.0667393
-0.0501979
-0.0335337
-0.0167874
0
0
0.0190674
0.0380882
0.0570158
0.0758038
0.0944063
0.112778
0.130873
0.148649
0.16606
0.183065
0.199622
0.215691
0.231232
0.246207
0.260579
0.274314
0.287377
0.299737
0.311364
0.322229
0.332305
0.341568
0.349995
0.357565
0.364261
0.370065
0.374964
0.378945
0.381998
0.384117
0.385296
0.385532
0.384824
0.383175
0.380588
0.37707
0.372628
0.367275
0.361024
0.353888
0.345887
0.337039
0.327367
0.316893
0.305644
0.293647
0.280931
0.267528
0.25347
0.238792
0.22353
0.20772
0.191402
0.174616
0.157403
0.139804
0.121863
0.103624
0.0851311
0.0664301
0.0475665
0.0285866
0.00953664
-0.00953664
-0.0285866
-0.0475665
-0.0664301
-0.0851311
-0.103624
-0.121863
-0.139804
-0.157403
-0.174616
-0.191402
-0.20772
-0.22353
-0.238792
-0.25347
-0.267528
-0.280931
-0.293647
-0.305644
-0.316893
-0.327367
-0.337039
-0.345887
-0.353888
-0.361024
-0.367275
-0.372628
-0.37707
-0.380588
-0.383175
-0.384824
-0.385532
-0.385296
-0.384117
-0.381998
-0.378945
-0.374964
-0.370065
-0.364261
-0.357565
-0.349995
-0.341568
-0.332305
-0.322229
-0.311364
-0.299737
-0.287377
-0.274314
-0.260579
-0.246207
-0.231232
-0.215691
-0.199622
-0.183065
-0.16606
-0.148649
-0.130873
-0.112778
-0.0944063
-0.0758038
-0.0570158
-0.0380882
-0.0190674
0
0
0.0213008
0.0425496
0.0636941
0.0846829
0.105464
0.125988
0.146203
0.16606
0.185511
0.204508
0.223004
0.240955
0.258316
0.275045
0.291101
0.306445
0.321038
0.334846
0.347835
0.359972
0.371228
0.381576
0.39099
0.399448
0.406928
0.413412
0.418884
0.423331
0.426742
0.429109
0.430426
0.43069
0.429899
0.428057
0.425167
0.421236
0.416275
0.410295
0.403311
0.39534
0.386402
0.376517
0.365712
0.354012
0.341445
0.328043
0.313837
0.298864
0.28316
0.266762
0.249712
0.232051
0.213822
0.195069
0.175839
0.156179
0.136137
0.115761
0.0951027
0.0742112
0.0531381
0.031935
0.0106537
-0.0106537
-0.031935
-0.0531381
-0.0742112
-0.0951027
-0.115761
-0.136137
-0.156179
-0.175839
-0.195069
-0.213822
-0.232051
-0.249712
-0.266762
-0.28316
-0.298864
-0.313837
-0.328043
-0.341445
-0.354012
-0.365712
-0.376517
-0.386402
-0.39534
-0.403311
-0.410295
-0.416275
-0.421236
-0.425167
-0.428057
-0.429899
-0.43069
-0.430426
-0.429109
-0.426742
-0.423331
-0.418884
-0.413412
-0.406928
-0.399448
-0.39099
-0.381576
-0.371228
-0.359972
-0.347835
-0.334846
-0.321038
-0.306445
-0.291101
-0.275045
-0.258316
-0.240955
-0.223004
-0.204508
-0.185511
-0.16606
-0.146203
-0.125988
-0.105464
-0.0846829
-0.0636941
-0.0425496
-0.0213008
0
0
0.0234821
0.0469068
0.0702166
0.0933547
0.116264
0.138889
0.161174
0.183065
0.204508
0.22545
0.245841
0.26563
0.284769
0.303211
0.320911
0.337826
0.353914
0.369135
0.383454
0.396834
0.409243
0.420651
0.431029
0.440353
0.448598
0.455746
0.461779
0.466682
0.470442
0.473052
0.474503
0.474794
0.473922
0.471891
0.468705
0.464372
0.458903
0.452311
0.444611
0.435824
0.42597
0.415074
0.403162
0.390264
0.37641
0.361635
0.345975
0.329469
0.312156
0.29408
0.275283
0.255814
0.235718
0.215045
0.193846
0.172173
0.150078
0.127616
0.104842
0.0818107
0.0585796
0.0352052
0.0117447
-0.0117447
-0.0352052
-0.0585796
-0.0818107
-0.104842
-0.127616
-0.150078
-0.172173
-0.193846
-0.215045
-0.235718
-0.255814
-0.275283
-0.29408
-0.312156
-0.329469
-0.345975
-0.361635
-0.37641
-0.390264
-0.403162
-0.415074
-0.42597
-0.435824
-0.444611
-0.452311
-0.458903
-0.464372
-0.468705
-0.471891
-0.473922
-0.474794
-0.474503
-0.473052
-0.470442
-0.466682
-0.461779
-0.455746
-0.448598
-0.440353
-0.431029
-0.420651
-0.409243
-0.396834
-0.383454
-0.369135
-0.353914
-0.337826
-0.320911
-0.303211
-0.284769
-0.26563
-0.245841
-0.22545
-0.204508
-0.183065
-0.161174
-0.138889
-0.116264
-0.0933547
-0.0702166
-0.0469068
-0.0234821
0
0
0.0256059
0.0511492
0.0765673
0.101798
0.12678
0.151451
0.175752
0.199622
0.223004
0.245841
0.268076
0.289654
0.310524
0.330634
0.349935
0.36838
0.385923
0.402521
0.418135
0.432725
0.446257
0.458696
0.470013
0.48018
0.489171
0.496966
0.503544
0.50889
0.512991
0.515836
0.517419
0.517736
0.516786
0.514571
0.511097
0.506372
0.500408
0.493219
0.484824
0.475242
0.464497
0.452615
0.439626
0.42556
0.410454
0.394343
0.377267
0.359267
0.340389
0.320677
0.300181
0.27895
0.257037
0.234494
0.211378
0.187744
0.163651
0.139158
0.114324
0.0892099
0.0638778
0.0383893
0.0128069
-0.0128069
-0.0383893
-0.0638778
-0.0892099
-0.114324
-0.139158
-0.163651
-0.187744
-0.211378
-0.234494
-0.257037
-0.27895
-0.300181
-0.320677
-0.340389
-0.359267
-0.377267
-0.394343
-0.410454
-0.42556
-0.439626
-0.452615
-0.464497
-0.475242
-0.484824
-0.493219
-0.500408
-0.506372
-0.511097
-0.514571
-0.516786
-0.517736
-0.517419
-0.515836
-0.512991
-0.50889
-0.503544
-0.496966
-0.489171
-0.48018
-0.470013
-0.458696
-0.446257
-0.432725
-0.418135
-0.402521
-0.385923
-0.36838
-0.349935
-0.330634
-0.310524
-0.289654
-0.268076
-0.245841
-0.223004
-0.199622
-0.175752
-0.151451
-0.12678
-0.101798
-0.0765673
-0.0511492
-0.0256059
0
0
0.0276671
0.0552664
0.0827306
0.109992
0.136985
0.163642
0.189899
0.215691
0.240955
0.26563
0.289654
0.31297
0.33552
0.357249
0.378103
0.398033
0.416988
0.434922
0.451793
0.467558
0.482178
0.495619
0.507847
0.518832
0.528547
0.536969
0.544077
0.549853
0.554284
0.557358
0.559069
0.559411
0.558384
0.555991
0.552238
0.547132
0.540688
0.532921
0.52385
0.513496
0.501886
0.489048
0.475013
0.459816
0.443493
0.426085
0.407635
0.388187
0.367789
0.34649
0.324344
0.301404
0.277727
0.25337
0.228393
0.202857
0.176825
0.150359
0.123526
0.0963909
0.0690196
0.0414795
0.0138378
-0.0138378
-0.0414795
-0.0690196
-0.0963909
-0.123526
-0.150359
-0.176825
-0.202857
-0.228393
-0.25337
-0.277727
-0.301404
-0.324344
-0.34649
-0.367789
-0.388187
-0.407635
-0.426085
-0.443493
-0.459816
-0.475013
-0.489048
-0.501886
-0.513496
-0.52385
-0.532921
-0.540688
-0.547132
-0.552238
-0.555991
-0.558384
-0.559411
-0.559069
-0.557358
-0.554284
-0.549853
-0.544077
-0.536969
-0.528547
-0.518832
-0.507847
-0.495619
-0.482178
-0.467558
-0.451793
-0.434922
-0.416988
-0.398033
-0.378103
-0.357249
-0.33552
-0.31297
-0.289654
-0.26563
-0.240955
-0.215691
-0.189899
-0.163642
-0.136985
-0.109992
-0.0827306
-0.0552664
-0.0276671
0
0
0.0296605
0.0592485
0.0886914
0.117917
0.146855
0.175433
0.203581
0.231232
0.258316
0.284769
0.310524
0.33552
0.359695
0.382989
0.405346
0.426711
0.447032
0.466259
0.484345
0.501246
0.51692
0.531329
0.544438
0.556214
0.56663
0.575658
0.583278
0.589471
0.594221
0.597517
0.59935
0.599717
0.598617
0.596051
0.592027
0.586554
0.579646
0.571319
0.561594
0.550494
0.538048
0.524285
0.509239
0.492946
0.475448
0.456785
0.437005
0.416156
0.394288
0.371455
0.347714
0.323121
0.297738
0.271626
0.244849
0.217473
0.189565
0.161193
0.132426
0.103336
0.0739926
0.0444681
0.0148348
-0.0148348
-0.0444681
-0.0739926
-0.103336
-0.132426
-0.161193
-0.189565
-0.217473
-0.244849
-0.271626
-0.297738
-0.323121
-0.347714
-0.371455
-0.394288
-0.416156
-0.437005
-0.456785
-0.475448
-0.492946
-0.509239
-0.524285
-0.538048
-0.550494
-0.561594
-0.571319
-0.579646
-0.586554
-0.592027
-0.596051
-0.598617
-0.599717
-0.59935
-0.597517
-0.594221
-0.589471
-0.583278
-0.575658
-0.56663
-0.556214
-0.544438
-0.531329
-0.51692
-0.501246
-0.484345
-0.466259
-0.447032
-0.426711
-0.405346
-0.382989
-0.359695
-0.33552
-0.310524
-0.284769
-0.258316
-0.231232
-0.203581
-0.175433
-0.146855
-0.117917
-0.0886914
-0.0592485
-0.0296605
0
0
0.0315814
0.0630855
0.0944352
0.125554
0.156365
0.186794
0.216765
0.246207
0.275045
0.303211
0.330634
0.357249
0.382989
0.407792
0.431597
0.454346
0.475983
0.496455
0.515712
0.533707
0.550396
0.565739
0.579696
0.592235
0.603325
0.612939
0.621052
0.627646
0.632703
0.636213
0.638165
0.638556
0.637384
0.634652
0.630367
0.62454
0.617184
0.608318
0.597963
0.586145
0.572893
0.558238
0.542218
0.52487
0.506238
0.486367
0.465306
0.443107
0.419823
0.395511
0.370232
0.344047
0.31702
0.289216
0.260706
0.231557
0.201841
0.171632
0.141003
0.110028
0.0787844
0.0473479
0.0157955
-0.0157955
-0.0473479
-0.0787844
-0.110028
-0.141003
-0.171632
-0.201841
-0.231557
-0.260706
-0.289216
-0.31702
-0.344047
-0.370232
-0.395511
-0.419823
-0.443107
-0.465306
-0.486367
-0.506238
-0.52487
-0.542218
-0.558238
-0.572893
-0.586145
-0.597963
-0.608318
-0.617184
-0.62454
-0.630367
-0.634652
-0.637384
-0.638556
-0.638165
-0.636213
-0.632703
-0.627646
-0.621052
-0.612939
-0.603325
-0.592235
-0.579696
-0.565739
-0.550396
-0.533707
-0.515712
-0.496455
-0.475983
-0.454346
-0.431597
-0.407792
-0.382989
-0.357249
-0.330634
-0.303211
-0.275045
-0.246207
-0.216765
-0.186794
-0.156365
-0.125554
-0.0944352
-0.0630855
-0.0315814
0
0
0.033425
0.0667681
0.0999479
0.132883
0.165493
0.197698
0.229419
0.260579
0.291101
0.320911
0.349935
0.378103
0.405346
0.431597
0.456791
0.480868
0.503768
0.525435
0.545817
0.564863
0.582526
0.598764
0.613536
0.626807
0.638545
0.648719
0.657306
0.664285
0.669638
0.673352
0.675418
0.675832
0.674591
0.6717
0.667165
0.660998
0.653213
0.643829
0.63287
0.620362
0.606335
0.590826
0.57387
0.55551
0.53579
0.514759
0.492469
0.468973
0.44433
0.4186
0.391845
0.364131
0.335526
0.3061
0.275924
0.245074
0.213624
0.181651
0.149234
0.116451
0.0833835
0.0501119
0.0167176
-0.0167176
-0.0501119
-0.0833835
-0.116451
-0.149234
-0.181651
-0.213624
-0.245074
-0.275924
-0.3061
-0.335526
-0.364131
-0.391845
-0.4186
-0.44433
-0.468973
-0.492469
-0.514759
-0.53579
-0.55551
-0.57387
-0.590826
-0.606335
-0.620362
-0.63287
-0.643829
-0.653213
-0.660998
-0.667165
-0.6717
-0.674591
-0.675832
-0.675418
-0.673352
-0.669638
-0.664285
-0.657306
-0.648719
-0.638545
-0.626807
-0.613536
-0.598764
-0.582526
-0.564863
-0.545817
-0.525435
-0.503768
-0.480868
-0.456791
-0.431597
-0.405346
-0.378103
-0.349935
-0.320911
-0.291101
-0.260579
-0.229419
-0.197698
-0.165493
-0.132883
-0.0999479
-0.0667681
-0.033425
0
0
0.0351867
0.0702874
0.105216
0.139887
0.174216
0.208118
0.241512
0.274314
0.306445
0.337826
0.36838
0.398033
0.426711
0.454346
0.480868
0.506214
0.530321
0.55313
0.574586
0.594636
0.61323
0.630324
0.645875
0.659845
0.672201
0.682912
0.691952
0.699298
0.704933
0.708843
0.711019
0.711454
0.710148
0.707105
0.702331
0.695838
0.687642
0.677764
0.666227
0.65306
0.638295
0.621967
0.604118
0.58479
0.564031
0.541892
0.518426
0.493692
0.46775
0.440663
0.412498
0.383323
0.353211
0.322234
0.290468
0.257992
0.224884
0.191226
0.1571
0.122589
0.0877785
0.0527532
0.0175988
-0.0175988
-0.0527532
-0.0877785
-0.122589
-0.1571
-0.191226
-0.224884
-0.257992
-0.290468
-0.322234
-0.353211
-0.383323
-0.412498
-0.440663
-0.46775
-0.493692
-0.518426
-0.541892
-0.564031
-0.58479
-0.604118
-0.621967
-0.638295
-0.65306
-0.666227
-0.677764
-0.687642
-0.695838
-0.702331
-0.707105
-0.710148
-0.711454
-0.711019
-0.708843
-0.704933
-0.699298
-0.691952
-0.682912
-0.672201
-0.659845
-0.645875
-0.630324
-0.61323
-0.594636
-0.574586
-0.55313
-0.530321
-0.506214
-0.480868
-0.454346
-0.426711
-0.398033
-0.36838
-0.337826
-0.306445
-0.274314
-0.241512
-0.208118
-0.174216
-0.139887
-0.105216
-0.0702874
-0.0351867
0
0
0.0368624
0.0736346
0.110227
0.146549
0.182512
0.218029
0.253013
0.287377
0.321038
0.353914
0.385923
0.416988
0.447032
0.475983
0.503768
0.530321
0.555576
0.579472
0.601949
0.622953
0.642433
0.660341
0.676633
0.691269
0.704213
0.715434
0.724904
0.7326
0.738504
0.7426
0.744879
0.745335
0.743967
0.740779
0.735777
0.728975
0.720389
0.710041
0.697954
0.68416
0.668692
0.651587
0.632887
0.612639
0.590891
0.567698
0.543115
0.517203
0.490025
0.461649
0.432142
0.401578
0.370031
0.337579
0.304301
0.270278
0.235593
0.200332
0.164581
0.128427
0.0919587
0.0552654
0.0184368
-0.0184368
-0.0552654
-0.0919587
-0.128427
-0.164581
-0.200332
-0.235593
-0.270278
-0.304301
-0.337579
-0.370031
-0.401578
-0.432142
-0.461649
-0.490025
-0.517203
-0.543115
-0.567698
-0.590891
-0.612639
-0.632887
-0.651587
-0.668692
-0.68416
-0.697954
-0.710041
-0.720389
-0.728975
-0.735777
-0.740779
-0.743967
-0.745335
-0.744879
-0.7426
-0.738504
-0.7326
-0.724904
-0.715434
-0.704213
-0.691269
-0.676633
-0.660341
-0.642433
-0.622953
-0.601949
-0.579472
-0.555576
-0.530321
-0.503768
-0.475983
-0.447032
-0.416988
-0.385923
-0.353914
-0.321038
-0.287377
-0.253013
-0.218029
-0.182512
-0.146549
-0.110227
-0.0736346
-0.0368624
0
0
0.0384479
0.0768016
0.114967
0.152852
0.190362
0.227407
0.263895
0.299737
0.334846
0.369135
0.402521
0.434922
0.466259
0.496455
0.525435
0.55313
0.579472
0.604395
0.627839
0.649747
0.670065
0.688742
0.705735
0.721
0.734501
0.746205
0.756082
0.76411
0.770267
0.774539
0.776916
0.777392
0.775965
0.77264
0.767423
0.760329
0.751374
0.74058
0.727974
0.713586
0.697452
0.679611
0.660108
0.638988
0.616306
0.592114
0.566474
0.539448
0.511101
0.481504
0.450729
0.41885
0.385947
0.352099
0.317389
0.281902
0.245726
0.208949
0.17166
0.133951
0.0959139
0.0576424
0.0192298
-0.0192298
-0.0576424
-0.0959139
-0.133951
-0.17166
-0.208949
-0.245726
-0.281902
-0.317389
-0.352099
-0.385947
-0.41885
-0.450729
-0.481504
-0.511101
-0.539448
-0.566474
-0.592114
-0.616306
-0.638988
-0.660108
-0.679611
-0.697452
-0.713586
-0.727974
-0.74058
-0.751374
-0.760329
-0.767423
-0.77264
-0.775965
-0.777392
-0.776916
-0.774539
-0.770267
-0.76411
-0.756082
-0.746205
-0.734501
-0.721
-0.705735
-0.688742
-0.670065
-0.649747
-0.627839
-0.604395
-0.579472
-0.55313
-0.525435
-0.496455
-0.466259
-0.434922
-0.402521
-0.369135
-0.334846
-0.299737
-0.263895
-0.227407
-0.190362
-0.152852
-0.114967
-0.0768016
-0.0384479
0
0
0.0399392
0.0797807
0.119427
0.158781
0.197746
0.236228
0.274131
0.311364
0.347835
0.383454
0.418135
0.451793
0.484345
0.515712
0.545817
0.574586
0.601949
0.627839
0.652193
0.67495
0.696056
0.715458
0.73311
0.748968
0.762992
0.77515
0.785411
0.793749
0.800145
0.804583
0.807052
0.807547
0.806065
0.80261
0.797191
0.789821
0.780519
0.769307
0.756211
0.741266
0.724506
0.705973
0.685713
0.663774
0.640212
0.615082
0.588448
0.560373
0.530927
0.500182
0.468212
0.435097
0.400917
0.365756
0.3297
0.292837
0.255258
0.217054
0.178318
0.139147
0.0996344
0.0598783
0.0199757
-0.0199757
-0.0598783
-0.0996344
-0.139147
-0.178318
-0.217054
-0.255258
-0.292837
-0.3297
-0.365756
-0.400917
-0.435097
-0.468212
-0.500182
-0.530927
-0.560373
-0.588448
-0.615082
-0.640212
-0.663774
-0.685713
-0.705973
-0.724506
-0.741266
-0.756211
-0.769307
-0.780519
-0.789821
-0.797191
-0.80261
-0.806065
-0.807547
-0.807052
-0.804583
-0.800145
-0.793749
-0.785411
-0.77515
-0.762992
-0.748968
-0.73311
-0.715458
-0.696056
-0.67495
-0.652193
-0.627839
-0.601949
-0.574586
-0.545817
-0.515712
-0.484345
-0.451793
-0.418135
-0.383454
-0.347835
-0.311364
-0.274131
-0.236228
-0.197746
-0.158781
-0.119427
-0.0797807
-0.0399392
0
0
0.0413329
0.0825646
0.123594
0.164321
0.204647
0.244471
0.283697
0.322229
0.359972
0.396834
0.432725
0.467558
0.501246
0.533707
0.564863
0.594636
0.622953
0.649747
0.67495
0.698502
0.720344
0.740424
0.758691
0.775102
0.789616
0.802198
0.812817
0.821446
0.828065
0.832658
0.835214
0.835725
0.834191
0.830616
0.825008
0.817381
0.807754
0.796151
0.782599
0.767131
0.749787
0.730607
0.70964
0.686936
0.662551
0.636545
0.608981
0.579926
0.549453
0.517635
0.48455
0.450279
0.414907
0.378519
0.341205
0.303056
0.264165
0.224627
0.184541
0.144002
0.103111
0.0619677
0.0206728
-0.0206728
-0.0619677
-0.103111
-0.144002
-0.184541
-0.224627
-0.264165
-0.303056
-0.341205
-0.378519
-0.414907
-0.450279
-0.48455
-0.517635
-0.549453
-0.579926
-0.608981
-0.636545
-0.662551
-0.686936
-0.70964
-0.730607
-0.749787
-0.767131
-0.782599
-0.796151
-0.807754
-0.817381
-0.825008
-0.830616
-0.834191
-0.835725
-0.835214
-0.832658
-0.828065
-0.821446
-0.812817
-0.802198
-0.789616
-0.775102
-0.758691
-0.740424
-0.720344
-0.698502
-0.67495
-0.649747
-0.622953
-0.594636
-0.564863
-0.533707
-0.501246
-0.467558
-0.432725
-0.396834
-0.359972
-0.322229
-0.283697
-0.244471
-0.204647
-0.164321
-0.123594
-0.0825646
-0.0413329
0
0
0.0426254
0.0851464
0.127459
0.16946
0.211046
0.252116
0.292568
0.332305
0.371228
0.409243
0.446257
0.482178
0.51692
0.550396
0.582526
0.61323
0.642433
0.670065
0.696056
0.720344
0.742869
0.763577
0.782416
0.79934
0.814308
0.827283
0.838234
0.847133
0.853959
0.858696
0.861331
0.861858
0.860277
0.85659
0.850806
0.842941
0.833013
0.821046
0.807071
0.79112
0.773233
0.753454
0.731831
0.708417
0.683269
0.65645
0.628024
0.598061
0.566634
0.533821
0.499702
0.46436
0.427881
0.390355
0.351874
0.312532
0.272425
0.231652
0.190311
0.148505
0.106335
0.0639054
0.0213192
-0.0213192
-0.0639054
-0.106335
-0.148505
-0.190311
-0.231652
-0.272425
-0.312532
-0.351874
-0.390355
-0.427881
-0.46436
-0.499702
-0.533821
-0.566634
-0.598061
-0.628024
-0.65645
-0.683269
-0.708417
-0.731831
-0.753454
-0.773233
-0.79112
-0.807071
-0.821046
-0.833013
-0.842941
-0.850806
-0.85659
-0.860277
-0.861858
-0.861331
-0.858696
-0.853959
-0.847133
-0.838234
-0.827283
-0.814308
-0.79934
-0.782416
-0.763577
-0.742869
-0.720344
-0.696056
-0.670065
-0.642433
-0.61323
-0.582526
-0.550396
-0.51692
-0.482178
-0.446257
-0.409243
-0.371228
-0.332305
-0.292568
-0.252116
-0.211046
-0.16946
-0.127459
-0.0851464
-0.0426254
0
0
0.0438135
0.0875199
0.131012
0.174184
0.216929
0.259143
0.300723
0.341568
0.381576
0.420651
0.458696
0.495619
0.531329
0.565739
0.598764
0.630324
0.660341
0.688742
0.715458
0.740424
0.763577
0.784861
0.804225
0.821621
0.837006
0.850343
0.861599
0.870747
0.877763
0.882632
0.88534
0.885883
0.884257
0.880467
0.874522
0.866438
0.856233
0.843933
0.829568
0.813172
0.794786
0.774456
0.75223
0.728164
0.702315
0.674748
0.64553
0.614732
0.582429
0.548702
0.513631
0.477304
0.439808
0.401236
0.361683
0.321244
0.280019
0.238109
0.195616
0.152644
0.109299
0.0656868
0.0219135
-0.0219135
-0.0656868
-0.109299
-0.152644
-0.195616
-0.238109
-0.280019
-0.321244
-0.361683
-0.401236
-0.439808
-0.477304
-0.513631
-0.548702
-0.582429
-0.614732
-0.64553
-0.674748
-0.702315
-0.728164
-0.75223
-0.774456
-0.794786
-0.813172
-0.829568
-0.843933
-0.856233
-0.866438
-0.874522
-0.880467
-0.884257
-0.885883
-0.88534
-0.882632
-0.877763
-0.870747
-0.861599
-0.850343
-0.837006
-0.821621
-0.804225
-0.784861
-0.763577
-0.740424
-0.715458
-0.688742
-0.660341
-0.630324
-0.598764
-0.565739
-0.531329
-0.495619
-0.458696
-0.420651
-0.381576
-0.341568
-0.300723
-0.259143
-0.216929
-0.174184
-0.131012
-0.0875199
-0.0438135
0
0
0.0448945
0.0896791
0.134244
0.178481
0.222281
0.265537
0.308143
0.349995
0.39099
0.431029
0.470013
0.507847
0.544438
0.579696
0.613536
0.645875
0.676633
0.705735
0.73311
0.758691
0.782416
0.804225
0.824067
0.841892
0.857657
0.871323
0.882856
0.892229
0.899419
0.904408
0.907183
0.907739
0.906073
0.90219
0.896098
0.887815
0.877358
0.864754
0.850034
0.833234
0.814395
0.793563
0.770789
0.746129
0.719643
0.691395
0.661456
0.629898
0.596799
0.562239
0.526303
0.48908
0.450659
0.411136
0.370606
0.32917
0.286928
0.243983
0.200442
0.15641
0.111996
0.0673074
0.0224541
-0.0224541
-0.0673074
-0.111996
-0.15641
-0.200442
-0.243983
-0.286928
-0.32917
-0.370606
-0.411136
-0.450659
-0.48908
-0.526303
-0.562239
-0.596799
-0.629898
-0.661456
-0.691395
-0.719643
-0.746129
-0.770789
-0.793563
-0.814395
-0.833234
-0.850034
-0.864754
-0.877358
-0.887815
-0.896098
-0.90219
-0.906073
-0.907739
-0.907183
-0.904408
-0.899419
-0.892229
-0.882856
-0.871323
-0.857657
-0.841892
-0.824067
-0.804225
-0.782416
-0.758691
-0.73311
-0.705735
-0.676633
-0.645875
-0.613536
-0.579696
-0.544438
-0.507847
-0.470013
-0.431029
-0.39099
-0.349995
-0.308143
-0.265537
-0.222281
-0.178481
-0.134244
-0.0896791
-0.0448945
0
0
0.0458656
0.0916189
0.137148
0.182342
0.227089
0.27128
0.314808
0.357565
0.399448
0.440353
0.48018
0.518832
0.556214
0.592235
0.626807
0.659845
0.691269
0.721
0.748968
0.775102
0.79934
0.821621
0.841892
0.860103
0.876208
0.89017
0.901953
0.911529
0.918874
0.923971
0.926806
0.927374
0.925672
0.921704
0.915482
0.907018
0.896336
0.883459
0.868421
0.851258
0.832011
0.810728
0.787462
0.762268
0.735209
0.706351
0.675764
0.643523
0.609708
0.574401
0.537687
0.499659
0.460407
0.420029
0.378622
0.33629
0.293134
0.249261
0.204778
0.159794
0.114419
0.0687633
0.0229398
-0.0229398
-0.0687633
-0.114419
-0.159794
-0.204778
-0.249261
-0.293134
-0.33629
-0.378622
-0.420029
-0.460407
-0.499659
-0.537687
-0.574401
-0.609708
-0.643523
-0.675764
-0.706351
-0.735209
-0.762268
-0.787462
-0.810728
-0.832011
-0.851258
-0.868421
-0.883459
-0.896336
-0.907018
-0.915482
-0.921704
-0.925672
-0.927374
-0.926806
-0.923971
-0.918874
-0.911529
-0.901953
-0.89017
-0.876208
-0.860103
-0.841892
-0.821621
-0.79934
-0.775102
-0.748968
-0.721
-0.691269
-0.659845
-0.626807
-0.592235
-0.556214
-0.518832
-0.48018
-0.440353
-0.399448
-0.357565
-0.314808
-0.27128
-0.227089
-0.182342
-0.137148
-0.0916189
-0.0458656
0
0
0.0467244
0.0933345
0.139716
0.185756
0.231341
0.27636
0.320703
0.364261
0.406928
0.448598
0.489171
0.528547
0.56663
0.603325
0.638545
0.672201
0.704213
0.734501
0.762992
0.789616
0.814308
0.837006
0.857657
0.876208
0.892616
0.906839
0.918842
0.928598
0.93608
0.941272
0.944161
0.944739
0.943005
0.938964
0.932624
0.924003
0.91312