# vtk DataFile Version 3.0
Laplace Solution
ASCII
DATASET STRUCTURED_POINTS
DIMENSIONS 128 128 1
ORIGIN 0 0 0
SPACING 0.00787402 0.00787402 0
POINT_DATA 16384
SCALARS U double 1
LOOKUP_TABLE default
1
0.999969
0.999876
0.999721
0.999504
0.999225
0.998884
0.998481
0.998017
0.99749
0.996902
0.996251
0.995539
0.994766
0.99393
0.993033
0.992074
0.991054
0.989973
0.98883
0.987626
0.98636
0.985033
0.983646
0.982197
0.980687
0.979117
0.977486
0.975794
0.974042
0.972229
0.970357
0.968424
0.96643
0.964377
0.962265
0.960092
0.95786
0.955569
0.953218
0.950809
0.94834
0.945812
0.943226
0.940582
0.937879
0.935118
0.932299
0.929422
0.926488
0.923496
0.920447
0.91734
0.914177
0.910958
0.907681
0.904349
0.90096
0.897516
0.894016
0.89046
0.886849
0.883184
0.879463
0.875688
0.871859
0.867976
0.864038
0.860048
0.856004
0.851907
0.847757
0.843554
0.839299
0.834993
0.830634
0.826224
0.821762
0.81725
0.812687
0.808074
0.80341
0.798697
0.793934
0.789122
0.784262
0.779352
0.774394
0.769388
0.764335
0.759234
0.754086
0.748891
0.74365
0.738362
0.733029
0.727651
0.722227
0.716759
0.711246
0.705689
0.700088
0.694444
0.688757
0.683027
0.677255
0.67144
0.665584
0.659687
0.653749
0.647771
0.641752
0.635693
0.629596
0.623459
0.617283
0.611069
0.604817
0.598528
0.592202
0.585839
0.579439
0.573004
0.566533
0.560027
0.553486
0.546911
0.540302
1.00791
1.00787
1.00778
1.00762
1.0074
1.00712
1.00678
1.00637
1.0059
1.00537
1.00478
1.00412
1.0034
1.00262
1.00178
1.00088
0.999911
0.998883
0.997792
0.99664
0.995426
0.99415
0.992813
0.991414
0.989953
0.988432
0.986848
0.985204
0.983499
0.981733
0.979905
0.978017
0.976069
0.97406
0.97199
0.969861
0.967671
0.965421
0.963111
0.960742
0.958313
0.955824
0.953277
0.95067
0.948005
0.94528
0.942497
0.939656
0.936756
0.933798
0.930783
0.927709
0.924578
0.92139
0.918145
0.914843
0.911484
0.908068
0.904597
0.901069
0.897485
0.893846
0.890151
0.886401
0.882596
0.878737
0.874823
0.870855
0.866832
0.862756
0.858627
0.854444
0.850209
0.84592
0.841579
0.837186
0.832742
0.828245
0.823697
0.819098
0.814449
0.809749
0.804998
0.800198
0.795348
0.790449
0.785501
0.780504
0.775459
0.770365
0.765224
0.760036
0.7548
0.749518
0.744189
0.738814
0.733393
0.727927
0.722415
0.716859
0.711258
0.705614
0.699925
0.694193
0.688418
0.682601
0.676741
0.670839
0.664896
0.658911
0.652886
0.64682
0.640714
0.634568
0.628383
0.622158
0.615896
0.609595
0.603256
0.59688
0.590467
0.584018
0.577532
0.57101
0.564453
0.557861
0.551234
0.544573
1.01587
1.01584
1.01575
1.01559
1.01537
1.01508
1.01473
1.01433
1.01385
1.01332
1.01272
1.01206
1.01133
1.01055
1.0097
1.00878
1.00781
1.00677
1.00567
1.00451
1.00329
1.002
1.00065
0.999243
0.997771
0.996237
0.994641
0.992984
0.991264
0.989484
0.987642
0.985739
0.983775
0.981749
0.979663
0.977517
0.975309
0.973041
0.970713
0.968325
0.965877
0.963368
0.9608
0.958173
0.955486
0.95274
0.949935
0.947071
0.944148
0.941167
0.938127
0.935029
0.931874
0.92866
0.925389
0.922061
0.918675
0.915233
0.911733
0.908178
0.904566
0.900898
0.897174
0.893394
0.889559
0.885669
0.881724
0.877725
0.873671
0.869562
0.8654
0.861185
0.856916
0.852593
0.848218
0.843791
0.839311
0.834779
0.830195
0.82556
0.820874
0.816137
0.811349
0.806511
0.801623
0.796685
0.791698
0.786662
0.781577
0.776444
0.771262
0.766033
0.760756
0.755432
0.750061
0.744644
0.739181
0.733671
0.728117
0.722517
0.716872
0.711183
0.70545
0.699673
0.693853
0.68799
0.682084
0.676135
0.670145
0.664114
0.658041
0.651927
0.645773
0.639579
0.633346
0.627073
0.620761
0.61441
0.608022
0.601596
0.595133
0.588632
0.582095
0.575523
0.568914
0.56227
0.555591
0.548878
1.0239
1.02387
1.02377
1.02361
1.02339
1.0231
1.02275
1.02234
1.02186
1.02132
1.02072
1.02005
1.01932
1.01853
1.01767
1.01675
1.01577
1.01473
1.01362
1.01245
1.01121
1.00992
1.00856
1.00713
1.00565
1.0041
1.0025
1.00082
0.999092
0.997297
0.99544
0.993522
0.991542
0.9895
0.987397
0.985233
0.983008
0.980722
0.978375
0.975968
0.9735
0.970972
0.968384
0.965735
0.963027
0.960259
0.957431
0.954544
0.951598
0.948594
0.94553
0.942407
0.939227
0.935988
0.932691
0.929336
0.925924
0.922454
0.918927
0.915343
0.911702
0.908005
0.904252
0.900442
0.896577
0.892656
0.88868
0.884649
0.880563
0.876422
0.872228
0.867979
0.863676
0.85932
0.85491
0.850448
0.845932
0.841365
0.836745
0.832073
0.82735
0.822576
0.81775
0.812874
0.807948
0.802971
0.797945
0.792869
0.787744
0.78257
0.777348
0.772077
0.766759
0.761393
0.75598
0.750521
0.745014
0.739462
0.733863
0.728219
0.72253
0.716797
0.711018
0.705196
0.69933
0.693421
0.687469
0.681474
0.675437
0.669358
0.663237
0.657075
0.650873
0.64463
0.638348
0.632026
0.625664
0.619264
0.612825
0.606349
0.599835
0.593283
0.586695
0.580071
0.57341
0.566714
0.559983
0.553217
1.032
1.03196
1.03187
1.03171
1.03148
1.03119
1.03084
1.03042
1.02994
1.02939
1.02879
1.02811
1.02738
1.02658
1.02571
1.02479
1.0238
1.02274
1.02162
1.02044
1.0192
1.01789
1.01652
1.01509
1.01359
1.01203
1.01041
1.00873
1.00698
1.00517
1.0033
1.00137
0.99937
0.997312
0.995192
0.993011
0.990768
0.988464
0.986098
0.983672
0.981184
0.978636
0.976027
0.973357
0.970627
0.967837
0.964987
0.962077
0.959108
0.956079
0.952991
0.949844
0.946638
0.943373
0.94005
0.936669
0.933229
0.929732
0.926177
0.922565
0.918896
0.915169
0.911386
0.907547
0.903651
0.899699
0.895691
0.891628
0.88751
0.883337
0.879109
0.874826
0.87049
0.866099
0.861655
0.857157
0.852606
0.848003
0.843346
0.838638
0.833878
0.829066
0.824202
0.819288
0.814322
0.809307
0.804241
0.799125
0.79396
0.788745
0.783482
0.77817
0.77281
0.767402
0.761946
0.756444
0.750894
0.745298
0.739655
0.733967
0.728233
0.722455
0.716631
0.710763
0.704851
0.698895
0.692896
0.686854
0.68077
0.674643
0.668474
0.662264
0.656013
0.649722
0.64339
0.637018
0.630606
0.624156
0.617667
0.611139
0.604574
0.597971
0.591331
0.584655
0.577942
0.571194
0.56441
0.557591
1.04016
1.04012
1.04002
1.03986
1.03963
1.03934
1.03898
1.03856
1.03808
1.03753
1.03692
1.03624
1.03549
1.03469
1.03382
1.03288
1.03188
1.03082
1.02969
1.0285
1.02725
1.02593
1.02455
1.02311
1.0216
1.02003
1.01839
1.01669
1.01493
1.01311
1.01122
1.00927
1.00726
1.00519
1.00305
1.00085
0.99859
0.996267
0.993882
0.991436
0.988929
0.98636
0.98373
0.98104
0.978288
0.975476
0.972603
0.96967
0.966677
0.963624
0.960512
0.957339
0.954108
0.950817
0.947468
0.94406
0.940593
0.937068
0.933485
0.929844
0.926146
0.92239
0.918577
0.914707
0.91078
0.906797
0.902758
0.898663
0.894512
0.890306
0.886045
0.881728
0.877358
0.872932
0.868453
0.86392
0.859333
0.854693
0.85
0.845255
0.840457
0.835607
0.830705
0.825752
0.820748
0.815692
0.810587
0.805431
0.800225
0.794969
0.789664
0.784311
0.778909
0.773458
0.76796
0.762414
0.75682
0.75118
0.745493
0.73976
0.733982
0.728157
0.722288
0.716374
0.710416
0.704413
0.698367
0.692277
0.686145
0.67997
0.673753
0.667494
0.661194
0.654853
0.648471
0.642049
0.635588
0.629087
0.622546
0.615968
0.609351
0.602696
0.596004
0.589275
0.58251
0.575708
0.568871
0.561998
1.04838
1.04834
1.04824
1.04808
1.04785
1.04755
1.0472
1.04677
1.04628
1.04573
1.04511
1.04442
1.04368
1.04286
1.04199
1.04104
1.04004
1.03896
1.03783
1.03663
1.03536
1.03404
1.03264
1.03119
1.02967
1.02808
1.02643
1.02472
1.02295
1.02111
1.01921
1.01724
1.01521
1.01312
1.01097
1.00875
1.00647
1.00413
1.00173
0.999263
0.996735
0.994146
0.991495
0.988783
0.986009
0.983175
0.980279
0.977323
0.974306
0.971229
0.968092
0.964894
0.961637
0.958321
0.954945
0.951509
0.948015
0.944462
0.940851
0.937181
0.933454
0.929668
0.925825
0.921924
0.917967
0.913952
0.909881
0.905754
0.90157
0.897331
0.893036
0.888685
0.88428
0.87982
0.875305
0.870736
0.866113
0.861437
0.856707
0.851924
0.847088
0.8422
0.83726
0.832268
0.827224
0.822129
0.816983
0.811786
0.806539
0.801242
0.795896
0.7905
0.785056
0.779562
0.77402
0.768431
0.762794
0.757109
0.751378
0.7456
0.739775
0.733905
0.72799
0.722029
0.716024
0.709974
0.703881
0.697743
0.691563
0.685339
0.679074
0.672766
0.666416
0.660025
0.653593
0.647121
0.640608
0.634056
0.627465
0.620834
0.614166
0.607459
0.600714
0.593932
0.587114
0.580259
0.573368
0.566441
1.05667
1.05663
1.05653
1.05636
1.05613
1.05583
1.05547
1.05504
1.05455
1.05399
1.05337
1.05268
1.05192
1.0511
1.05022
1.04927
1.04825
1.04717
1.04603
1.04482
1.04354
1.0422
1.0408
1.03933
1.0378
1.0362
1.03454
1.03281
1.03102
1.02917
1.02725
1.02527
1.02323
1.02112
1.01895
1.01672
1.01442
1.01206
1.00964
1.00715
1.0046
1.00199
0.999321
0.996588
0.993792
0.990935
0.988016
0.985036
0.981996
0.978894
0.975732
0.972509
0.969226
0.965883
0.96248
0.959018
0.955496
0.951915
0.948275
0.944576
0.940819
0.937004
0.93313
0.929199
0.92521
0.921164
0.91706
0.9129
0.908684
0.904411
0.900082
0.895697
0.891257
0.886762
0.882211
0.877606
0.872947
0.868234
0.863467
0.858646
0.853772
0.848846
0.843866
0.838835
0.833751
0.828616
0.82343
0.818192
0.812904
0.807566
0.802177
0.796739
0.791251
0.785715
0.780129
0.774496
0.768814
0.763085
0.757308
0.751485
0.745615
0.739699
0.733737
0.72773
0.721677
0.71558
0.709438
0.703253
0.697024
0.690751
0.684436
0.678079
0.671679
0.665238
0.658756
0.652232
0.645669
0.639065
0.632422
0.625739
0.619018
0.612259
0.605461
0.598626
0.591754
0.584845
0.5779
0.570919
1.06502
1.06498
1.06488
1.06471
1.06448
1.06418
1.06381
1.06338
1.06288
1.06232
1.06169
1.061
1.06023
1.05941
1.05852
1.05756
1.05653
1.05544
1.05429
1.05307
1.05179
1.05044
1.04902
1.04754
1.04599
1.04438
1.04271
1.04097
1.03917
1.0373
1.03537
1.03337
1.03131
1.02918
1.027
1.02474
1.02243
1.02005
1.01761
1.0151
1.01253
1.0099
1.00721
1.00445
1.00164
0.998756
0.995815
0.992811
0.989746
0.98662
0.983433
0.980184
0.976875
0.973506
0.970076
0.966586
0.963036
0.959427
0.955758
0.95203
0.948243
0.944397
0.940493
0.936531
0.93251
0.928432
0.924297
0.920104
0.915854
0.911547
0.907184
0.902765
0.898289
0.893759
0.889172
0.884531
0.879835
0.875085
0.87028
0.865421
0.860509
0.855544
0.850525
0.845454
0.840331
0.835155
0.829928
0.824649
0.819319
0.813939
0.808508
0.803027
0.797496
0.791916
0.786287
0.780609
0.774883
0.769108
0.763286
0.757417
0.751501
0.745538
0.73953
0.733475
0.727375
0.72123
0.71504
0.708806
0.702528
0.696206
0.689841
0.683434
0.676984
0.670492
0.663959
0.657385
0.650769
0.644114
0.637418
0.630683
0.623909
0.617097
0.610246
0.603357
0.596431
0.589467
0.582468
0.575432
1.07344
1.0734
1.0733
1.07313
1.07289
1.07259
1.07222
1.07179
1.07128
1.07072
1.07008
1.06938
1.06861
1.06778
1.06688
1.06591
1.06488
1.06378
1.06262
1.06139
1.06009
1.05873
1.05731
1.05581
1.05426
1.05263
1.05094
1.04919
1.04737
1.04549
1.04354
1.04153
1.03945
1.03731
1.0351
1.03283
1.0305
1.0281
1.02564
1.02312
1.02053
1.01788
1.01516
1.01238
1.00954
1.00664
1.00367
1.00065
0.997558
0.994407
0.991194
0.98792
0.984585
0.981189
0.977732
0.974214
0.970636
0.966998
0.963301
0.959543
0.955726
0.95185
0.947915
0.943921
0.939869
0.935758
0.93159
0.927364
0.923081
0.91874
0.914342
0.909888
0.905378
0.900811
0.896189
0.891511
0.886778
0.88199
0.877147
0.872251
0.8673
0.862295
0.857237
0.852126
0.846962
0.841746
0.836477
0.831157
0.825785
0.820362
0.814889
0.809365
0.80379
0.798166
0.792493
0.78677
0.780999
0.775179
0.769312
0.763396
0.757434
0.751424
0.745368
0.739266
0.733118
0.726924
0.720686
0.714403
0.708075
0.701704
0.695289
0.688831
0.682331
0.675788
0.669204
0.662577
0.65591
0.649202
0.642454
0.635666
0.628839
0.621973
0.615068
0.608125
0.601145
0.594127
0.587072
0.579981
1.08192
1.08189
1.08178
1.08161
1.08137
1.08107
1.0807
1.08026
1.07975
1.07918
1.07854
1.07783
1.07706
1.07622
1.07531
1.07433
1.07329
1.07219
1.07101
1.06977
1.06847
1.0671
1.06566
1.06415
1.06258
1.06095
1.05924
1.05748
1.05564
1.05375
1.05178
1.04975
1.04766
1.0455
1.04328
1.04099
1.03864
1.03622
1.03374
1.03119
1.02858
1.02591
1.02317
1.02037
1.01751
1.01459
1.0116
1.00855
1.00543
1.00226
0.999018
0.995718
0.992356
0.988933
0.985448
0.981903
0.978297
0.97463
0.970903
0.967115
0.963268
0.959362
0.955395
0.95137
0.947286
0.943143
0.938942
0.934682
0.930365
0.92599
0.921558
0.917068
0.912522
0.90792
0.903261
0.898546
0.893776
0.88895
0.884069
0.879134
0.874144
0.8691
0.864002
0.858851
0.853646
0.848389
0.843079
0.837717
0.832303
0.826837
0.82132
0.815753
0.810135
0.804466
0.798748
0.792981
0.787164
0.781298
0.775385
0.769423
0.763413
0.757356
0.751253
0.745103
0.738906
0.732664
0.726377
0.720044
0.713667
0.707245
0.70078
0.694272
0.68772
0.681126
0.67449
0.667811
0.661092
0.654331
0.64753
0.640689
0.633808
0.626888
0.619929
0.612931
0.605896
0.598823
0.591712
0.584566
1.09048
1.09044
1.09033
1.09016
1.08992
1.08961
1.08924
1.08879
1.08828
1.0877
1.08706
1.08635
1.08557
1.08472
1.0838
1.08282
1.08177
1.08066
1.07947
1.07822
1.07691
1.07552
1.07407
1.07256
1.07098
1.06933
1.06761
1.06583
1.06398
1.06207
1.06009
1.05804
1.05593
1.05376
1.05151
1.04921
1.04684
1.0444
1.0419
1.03933
1.0367
1.03401
1.03125
1.02843
1.02554
1.02259
1.01958
1.01651
1.01337
1.01017
1.0069
1.00358
1.00019
0.996738
0.993226
0.989652
0.986018
0.982322
0.978565
0.974748
0.97087
0.966933
0.962935
0.958878
0.954761
0.950586
0.946351
0.942058
0.937707
0.933297
0.92883
0.924305
0.919723
0.915084
0.910389
0.905637
0.900829
0.895965
0.891046
0.886072
0.881042
0.875959
0.870821
0.865629
0.860383
0.855084
0.849733
0.844328
0.838872
0.833363
0.827803
0.822191
0.816529
0.810816
0.805053
0.79924
0.793378
0.787466
0.781506
0.775497
0.76944
0.763336
0.757184
0.750986
0.74474
0.738449
0.732112
0.72573
0.719303
0.712831
0.706315
0.699755
0.693152
0.686506
0.679817
0.673087
0.666314
0.659501
0.652646
0.645751
0.638816
0.631841
0.624828
0.617775
0.610684
0.603556
0.59639
0.589187
1.0991
1.09906
1.09895
1.09878
1.09853
1.09822
1.09784
1.0974
1.09688
1.0963
1.09565
1.09493
1.09414
1.09329
1.09237
1.09138
1.09032
1.0892
1.088
1.08674
1.08542
1.08402
1.08256
1.08103
1.07943
1.07777
1.07604
1.07425
1.07238
1.07045
1.06846
1.0664
1.06427
1.06208
1.05982
1.05749
1.0551
1.05265
1.05013
1.04754
1.04489
1.04217
1.03939
1.03655
1.03364
1.03067
1.02763
1.02453
1.02137
1.01814
1.01485
1.0115
1.00808
1.00461
1.00107
0.997464
0.9938
0.990075
0.986288
0.982441
0.978533
0.974564
0.970535
0.966445
0.962296
0.958088
0.95382
0.949493
0.945107
0.940663
0.93616
0.9316
0.926982
0.922306
0.917574
0.912784
0.907938
0.903036
0.898078
0.893064
0.887996
0.882872
0.877693
0.87246
0.867174
0.861833
0.856439
0.850992
0.845493
0.839941
0.834337
0.828681
0.822974
0.817216
0.811408
0.805549
0.799641
0.793683
0.787675
0.781619
0.775515
0.769363
0.763163
0.756915
0.750621
0.74428
0.737893
0.731461
0.724983
0.71846
0.711893
0.705282
0.698627
0.691929
0.685188
0.678404
0.671578
0.664711
0.657803
0.650853
0.643864
0.636834
0.629765
0.622658
0.615511
0.608326
0.601104
0.593844
1.10778
1.10775
1.10764
1.10746
1.10722
1.1069
1.10652
1.10607
1.10555
1.10496
1.10431
1.10358
1.10279
1.10193
1.101
1.1
1.09893
1.0978
1.0966
1.09533
1.09399
1.09258
1.09111
1.08957
1.08796
1.08628
1.08454
1.08273
1.08085
1.07891
1.0769
1.07482
1.07267
1.07046
1.06819
1.06584
1.06343
1.06096
1.05842
1.05581
1.05314
1.0504
1.0476
1.04473
1.0418
1.0388
1.03574
1.03262
1.02943
1.02618
1.02286
1.01948
1.01604
1.01253
1.00897
1.00534
1.00164
0.997889
0.994073
0.990195
0.986256
0.982256
0.978195
0.974073
0.969891
0.965649
0.961348
0.956986
0.952566
0.948087
0.943549
0.938952
0.934297
0.929585
0.924815
0.919988
0.915104
0.910163
0.905166
0.900113
0.895004
0.88984
0.88462
0.879346
0.874018
0.868635
0.863199
0.857709
0.852166
0.846571
0.840923
0.835222
0.829471
0.823667
0.817813
0.811908
0.805953
0.799948
0.793894
0.78779
0.781638
0.775437
0.769188
0.762892
0.756548
0.750158
0.74372
0.737237
0.730709
0.724135
0.717516
0.710853
0.704145
0.697394
0.6906
0.683763
0.676884
0.669963
0.663
0.655996
0.648952
0.641867
0.634742
0.627578
0.620376
0.613135
0.605855
0.598539
1.11654
1.1165
1.11639
1.11622
1.11597
1.11565
1.11527
1.11481
1.11429
1.1137
1.11303
1.1123
1.1115
1.11064
1.1097
1.10869
1.10762
1.10647
1.10526
1.10398
1.10263
1.10121
1.09973
1.09818
1.09655
1.09486
1.09311
1.09128
1.08939
1.08743
1.0854
1.08331
1.08115
1.07892
1.07662
1.07426
1.07183
1.06934
1.06677
1.06415
1.06145
1.05869
1.05587
1.05298
1.05002
1.047
1.04392
1.04077
1.03756
1.03428
1.03094
1.02753
1.02406
1.02053
1.01693
1.01327
1.00955
1.00577
1.00192
0.998011
0.99404
0.990008
0.985915
0.981761
0.977546
0.973271
0.968935
0.964539
0.960084
0.955569
0.950995
0.946363
0.941671
0.936922
0.932114
0.927249
0.922326
0.917347
0.91231
0.907217
0.902068
0.896863
0.891603
0.886287
0.880917
0.875492
0.870012
0.864479
0.858893
0.853253
0.847561
0.841816
0.836018
0.83017
0.824269
0.818318
0.812316
0.806264
0.800162
0.79401
0.787809
0.78156
0.775262
0.768916
0.762522
0.756081
0.749594
0.74306
0.73648
0.729854
0.723183
0.716467
0.709707
0.702903
0.696056
0.689165
0.682231
0.675256
0.668238
0.661179
0.654079
0.646939
0.639759
0.632538
0.625279
0.617981
0.610644
0.60327
1.12537
1.12533
1.12522
1.12504
1.12479
1.12447
1.12408
1.12362
1.12309
1.1225
1.12183
1.12109
1.12029
1.11941
1.11847
1.11745
1.11637
1.11522
1.11399
1.1127
1.11134
1.10991
1.10842
1.10685
1.10522
1.10351
1.10174
1.0999
1.09799
1.09602
1.09397
1.09186
1.08968
1.08744
1.08512
1.08274
1.08029
1.07778
1.0752
1.07255
1.06983
1.06705
1.06421
1.06129
1.05831
1.05527
1.05216
1.04899
1.04575
1.04244
1.03907
1.03564
1.03214
1.02858
1.02496
1.02127
1.01752
1.0137
1.00983
1.00589
1.00189
0.997823
0.993697
0.98951
0.985262
0.980953
0.976583
0.972152
0.967662
0.963111
0.958501
0.953832
0.949104
0.944317
0.939471
0.934568
0.929606
0.924587
0.919511
0.914378
0.909188
0.903942
0.89864
0.893283
0.88787
0.882402
0.87688
0.871303
0.865673
0.859989
0.854251
0.848461
0.842618
0.836723
0.830777
0.824779
0.818729
0.81263
0.806479
0.800279
0.79403
0.787731
0.781383
0.774987
0.768544
0.762052
0.755513
0.748928
0.742296
0.735618
0.728895
0.722126
0.715313
0.708456
0.701554
0.694609
0.687621
0.680591
0.673518
0.666404
0.659248
0.652051
0.644814
0.637537
0.630221
0.622865
0.615471
0.608039
1.13426
1.13422
1.13411
1.13393
1.13368
1.13336
1.13297
1.1325
1.13197
1.13137
1.1307
1.12995
1.12914
1.12826
1.1273
1.12628
1.12519
1.12403
1.12279
1.12149
1.12012
1.11868
1.11717
1.11559
1.11395
1.11223
1.11044
1.10859
1.10667
1.10467
1.10261
1.10049
1.09829
1.09603
1.09369
1.09129
1.08882
1.08629
1.08369
1.08102
1.07828
1.07548
1.07261
1.06967
1.06667
1.0636
1.06047
1.05727
1.054
1.05067
1.04728
1.04382
1.04029
1.0367
1.03305
1.02933
1.02555
1.02171
1.0178
1.01383
1.00979
1.0057
1.00154
0.997321
0.993039
0.988696
0.984291
0.979826
0.9753
0.970713
0.966067
0.961361
0.956595
0.95177
0.946887
0.941944
0.936944
0.931885
0.926769
0.921595
0.916365
0.911077
0.905734
0.900334
0.894878
0.889368
0.883802
0.878181
0.872506
0.866777
0.860995
0.855159
0.84927
0.843329
0.837336
0.83129
0.825193
0.819046
0.812847
0.806598
0.800299
0.793951
0.787554
0.781107
0.774613
0.76807
0.76148
0.754843
0.748159
0.741428
0.734652
0.72783
0.720964
0.714052
0.707096
0.700097
0.693054
0.685968
0.67884
0.671669
0.664457
0.657204
0.64991
0.642576
0.635202
0.627789
0.620336
0.612846
1.14323
1.14319
1.14308
1.14289
1.14264
1.14232
1.14192
1.14145
1.14092
1.14031
1.13963
1.13888
1.13806
1.13717
1.13621
1.13518
1.13408
1.13291
1.13167
1.13035
1.12897
1.12752
1.126
1.12441
1.12275
1.12102
1.11922
1.11735
1.11541
1.1134
1.11132
1.10918
1.10696
1.10468
1.10233
1.09991
1.09742
1.09487
1.09225
1.08955
1.0868
1.08397
1.08108
1.07812
1.07509
1.072
1.06884
1.06562
1.06232
1.05897
1.05555
1.05206
1.04851
1.04489
1.04121
1.03746
1.03365
1.02977
1.02583
1.02183
1.01777
1.01364
1.00945
1.00519
1.00088
0.9965
0.992061
0.98756
0.982998
0.978376
0.973693
0.968949
0.964146
0.959283
0.954361
0.94938
0.944339
0.939241
0.934084
0.92887
0.923598
0.918269
0.912883
0.907441
0.901943
0.896388
0.890779
0.885114
0.879394
0.87362
0.867792
0.86191
0.855975
0.849987
0.843946
0.837854
0.831709
0.825513
0.819265
0.812967
0.806619
0.800221
0.793773
0.787276
0.78073
0.774136
0.767494
0.760804
0.754068
0.747285
0.740455
0.73358
0.726659
0.719693
0.712682
0.705628
0.69853
0.691388
0.684204
0.676977
0.669708
0.662398
0.655047
0.647655
0.640223
0.632751
0.62524
0.61769
1.15227
1.15223
1.15211
1.15193
1.15167
1.15134
1.15095
1.15048
1.14993
1.14932
1.14864
1.14788
1.14706
1.14616
1.14519
1.14415
1.14304
1.14186
1.14061
1.13928
1.13789
1.13643
1.13489
1.13329
1.13162
1.12987
1.12806
1.12617
1.12422
1.12219
1.1201
1.11794
1.11571
1.11341
1.11104
1.1086
1.10609
1.10351
1.10087
1.09816
1.09538
1.09253
1.08961
1.08663
1.08358
1.08046
1.07728
1.07403
1.07071
1.06733
1.06388
1.06036
1.05678
1.05314
1.04943
1.04565
1.04181
1.0379
1.03393
1.0299
1.0258
1.02164
1.01742
1.01313
1.00878
1.00437
0.999892
0.995356
0.990758
0.986099
0.981379
0.976598
0.971757
0.966856
0.961894
0.956874
0.951794
0.946655
0.941458
0.936202
0.930889
0.925518
0.92009
0.914605
0.909063
0.903465
0.897811
0.892101
0.886337
0.880517
0.874643
0.868715
0.862733
0.856698
0.85061
0.844469
0.838276
0.832031
0.825734
0.819387
0.812988
0.80654
0.800041
0.793493
0.786896
0.78025
0.773556
0.766813
0.760024
0.753187
0.746304
0.739374
0.732399
0.725378
0.718313
0.711203
0.704049
0.696851
0.68961
0.682326
0.675
0.667632
0.660223
0.652773
0.645283
0.637752
0.630182
0.622573
1.16138
1.16133
1.16122
1.16103
1.16078
1.16044
1.16004
1.15957
1.15902
1.1584
1.15771
1.15695
1.15612
1.15522
1.15424
1.15319
1.15207
1.15088
1.14962
1.14829
1.14688
1.14541
1.14386
1.14224
1.14055
1.1388
1.13697
1.13507
1.1331
1.13106
1.12895
1.12677
1.12452
1.1222
1.11981
1.11735
1.11483
1.11223
1.10956
1.10683
1.10403
1.10116
1.09822
1.09521
1.09214
1.089
1.08579
1.08251
1.07917
1.07576
1.07228
1.06874
1.06513
1.06145
1.05771
1.0539
1.05003
1.0461
1.04209
1.03803
1.0339
1.0297
1.02545
1.02113
1.01674
1.0123
1.00779
1.00321
0.998579
0.993883
0.989126
0.984307
0.979428
0.974488
0.969488
0.964428
0.959308
0.954128
0.94889
0.943593
0.938238
0.932824
0.927353
0.921825
0.91624
0.910597
0.904899
0.899144
0.893334
0.887469
0.881549
0.875574
0.869545
0.863462
0.857326
0.851137
0.844895
0.838601
0.832255
0.825857
0.819408
0.812909
0.806359
0.79976
0.79311
0.786412
0.779665
0.77287
0.766027
0.759136
0.752199
0.745215
0.738185
0.731109
0.723988
0.716822
0.709611
0.702357
0.695059
0.687718
0.680334
0.672909
0.665441
0.657932
0.650383
0.642793
0.635164
0.627495
1.17056
1.17051
1.1704
1.17021
1.16995
1.16962
1.16921
1.16873
1.16818
1.16756
1.16686
1.1661
1.16526
1.16434
1.16336
1.1623
1.16117
1.15997
1.1587
1.15736
1.15594
1.15446
1.1529
1.15127
1.14956
1.14779
1.14595
1.14403
1.14205
1.13999
1.13787
1.13567
1.1334
1.13106
1.12865
1.12618
1.12363
1.12101
1.11833
1.11557
1.11275
1.10985
1.10689
1.10386
1.10076
1.09759
1.09436
1.09106
1.08769
1.08425
1.08075
1.07717
1.07354
1.06983
1.06606
1.06222
1.05832
1.05435
1.05032
1.04622
1.04206
1.03783
1.03354
1.02919
1.02477
1.02029
1.01574
1.01113
1.00646
1.00173
0.996935
0.992078
0.98716
0.982181
0.977141
0.972041
0.966881
0.961661
0.956381
0.951043
0.945645
0.940189
0.934675
0.929103
0.923473
0.917787
0.912043
0.906243
0.900388
0.894476
0.888509
0.882487
0.876411
0.87028
0.864096
0.857858
0.851567
0.845223
0.838827
0.832379
0.825879
0.819329
0.812727
0.806076
0.799374
0.792623
0.785823
0.778975
0.772078
0.765133
0.758141
0.751102
0.744016
0.736885
0.729707
0.722485
0.715218
0.707906
0.700551
0.693152
0.685711
0.678226
0.6707
0.663132
0.655524
0.647874
0.640184
0.632455
1.17981
1.17977
1.17965
1.17946
1.1792
1.17886
1.17845
1.17797
1.17741
1.17679
1.17609
1.17531
1.17446
1.17354
1.17255
1.17149
1.17035
1.16914
1.16786
1.1665
1.16508
1.16358
1.162
1.16036
1.15865
1.15686
1.155
1.15307
1.15107
1.149
1.14685
1.14464
1.14235
1.14
1.13757
1.13507
1.1325
1.12987
1.12716
1.12438
1.12153
1.11862
1.11563
1.11258
1.10945
1.10626
1.103
1.09967
1.09628
1.09281
1.08928
1.08568
1.08201
1.07828
1.07448
1.07061
1.06668
1.06268
1.05861
1.05448
1.05029
1.04603
1.0417
1.03731
1.03286
1.02834
1.02376
1.01912
1.01441
1.00964
1.00481
0.99991
0.994954
0.989935
0.984856
0.979715
0.974514
0.969253
0.963932
0.958551
0.953111
0.947612
0.942054
0.936438
0.930764
0.925033
0.919244
0.913399
0.907497
0.901539
0.895525
0.889455
0.883331
0.877152
0.870919
0.864632
0.858291
0.851897
0.845451
0.838952
0.832402
0.825799
0.819146
0.812442
0.805688
0.798884
0.79203
0.785128
0.778176
0.771177
0.76413
0.757035
0.749894
0.742706
0.735473
0.728193
0.720869
0.7135
0.706087
0.69863
0.691129
0.683586
0.676001
0.668374
0.660705
0.652995
0.645245
0.637455
1.18914
1.18909
1.18898
1.18878
1.18852
1.18818
1.18777
1.18728
1.18672
1.18609
1.18538
1.1846
1.18375
1.18282
1.18182
1.18074
1.1796
1.17838
1.17708
1.17572
1.17428
1.17277
1.17119
1.16953
1.1678
1.166
1.16413
1.16218
1.16016
1.15807
1.15591
1.15368
1.15138
1.149
1.14655
1.14404
1.14145
1.13879
1.13606
1.13326
1.13039
1.12745
1.12444
1.12136
1.11822
1.115
1.11171
1.10836
1.10493
1.10144
1.09788
1.09425
1.09056
1.08679
1.08296
1.07907
1.0751
1.07107
1.06697
1.06281
1.05858
1.05429
1.04993
1.0455
1.04101
1.03646
1.03184
1.02716
1.02242
1.01761
1.01274
1.0078
1.00281
0.997751
0.992631
0.98745
0.982208
0.976906
0.971542
0.966119
0.960636
0.955094
0.949492
0.943832
0.938113
0.932337
0.926502
0.920611
0.914662
0.908657
0.902596
0.896479
0.890306
0.884079
0.877796
0.87146
0.865069
0.858625
0.852128
0.845578
0.838975
0.832321
0.825616
0.818859
0.812051
0.805194
0.798286
0.791329
0.784323
0.777269
0.770166
0.763016
0.755818
0.748574
0.741283
0.733947
0.726565
0.719138
0.711666
0.70415
0.696591
0.688989
0.681343
0.673656
0.665927
0.658157
0.650345
0.642494
1.19854
1.19849
1.19837
1.19818
1.19791
1.19757
1.19715
1.19666
1.1961
1.19546
1.19475
1.19396
1.1931
1.19217
1.19116
1.19007
1.18892
1.18769
1.18639
1.18501
1.18356
1.18204
1.18044
1.17877
1.17703
1.17521
1.17332
1.17136
1.16933
1.16722
1.16504
1.16279
1.16047
1.15808
1.15561
1.15307
1.15046
1.14778
1.14503
1.14221
1.13932
1.13636
1.13332
1.13022
1.12705
1.1238
1.12049
1.11711
1.11366
1.11014
1.10655
1.10289
1.09917
1.09537
1.09151
1.08759
1.08359
1.07953
1.0754
1.0712
1.06694
1.06261
1.05822
1.05376
1.04923
1.04464
1.03999
1.03527
1.03049
1.02564
1.02073
1.01576
1.01073
1.00563
1.00047
0.995247
0.989964
0.984619
0.979213
0.973747
0.968221
0.962635
0.956989
0.951284
0.945521
0.939698
0.933818
0.92788
0.921885
0.915832
0.909723
0.903558
0.897337
0.89106
0.884728
0.878342
0.871901
0.865406
0.858857
0.852256
0.845602
0.838895
0.832137
0.825327
0.818466
0.811554
0.804592
0.79758
0.790519
0.783409
0.77625
0.769044
0.76179
0.754488
0.74714
0.739746
0.732306
0.72482
0.71729
0.709715
0.702096
0.694434
0.686728
0.67898
0.67119
0.663359
0.655486
0.647573
1.20801
1.20797
1.20785
1.20765
1.20738
1.20704
1.20662
1.20612
1.20555
1.20491
1.20419
1.2034
1.20253
1.20159
1.20057
1.19948
1.19831
1.19707
1.19576
1.19437
1.19291
1.19137
1.18977
1.18808
1.18633
1.1845
1.18259
1.18061
1.17856
1.17644
1.17425
1.17198
1.16964
1.16722
1.16474
1.16218
1.15955
1.15685
1.15408
1.15123
1.14832
1.14533
1.14227
1.13915
1.13595
1.13268
1.12934
1.12593
1.12245
1.11891
1.11529
1.1116
1.10785
1.10402
1.10013
1.09617
1.09215
1.08805
1.08389
1.07966
1.07536
1.071
1.06657
1.06208
1.05752
1.05289
1.0482
1.04345
1.03863
1.03374
1.02879
1.02378
1.01871
1.01357
1.00837
1.00311
0.99778
0.992393
0.986945
0.981436
0.975866
0.970236
0.964546
0.958796
0.952987
0.947119
0.941192
0.935207
0.929165
0.923064
0.916907
0.910693
0.904423
0.898097
0.891715
0.885278
0.878786
0.87224
0.86564
0.858987
0.85228
0.845521
0.838709
0.831846
0.82493
0.817964
0.810948
0.803881
0.796764
0.789598
0.782383
0.77512
0.767808
0.760449
0.753043
0.745591
0.738092
0.730548
0.722958
0.715323
0.707645
0.699922
0.692156
0.684347
0.676496
0.668602
0.660668
0.652692
1.21756
1.21752
1.21739
1.2172
1.21692
1.21658
1.21615
1.21566
1.21508
1.21443
1.21371
1.21291
1.21203
1.21108
1.21006
1.20896
1.20778
1.20653
1.20521
1.20381
1.20234
1.20079
1.19917
1.19747
1.1957
1.19385
1.19193
1.18994
1.18788
1.18574
1.18352
1.18124
1.17888
1.17644
1.17394
1.17136
1.16871
1.16599
1.16319
1.16033
1.15739
1.15438
1.1513
1.14814
1.14492
1.14162
1.13826
1.13482
1.13132
1.12774
1.1241
1.12038
1.1166
1.11274
1.10882
1.10483
1.10077
1.09664
1.09245
1.08819
1.08386
1.07946
1.075
1.07047
1.06587
1.06121
1.05648
1.05169
1.04683
1.04191
1.03692
1.03187
1.02675
1.02157
1.01633
1.01103
1.00566
1.00023
0.994739
0.989186
0.983572
0.977897
0.972162
0.966367
0.960512
0.954598
0.948624
0.942592
0.936502
0.930354
0.924148
0.917885
0.911566
0.905189
0.898757
0.89227
0.885727
0.879129
0.872477
0.865771
0.859012
0.852199
0.845334
0.838416
0.831447
0.824426
0.817354
0.810231
0.803058
0.795836
0.788564
0.781243
0.773875
0.766458
0.758993
0.751482
0.743924
0.73632
0.728671
0.720976
0.713237
0.705453
0.697626
0.689756
0.681843
0.673887
0.66589
0.657851
1.22719
1.22714
1.22702
1.22682
1.22654
1.22619
1.22577
1.22526
1.22468
1.22403
1.2233
1.22249
1.22161
1.22065
1.21962
1.21851
1.21733
1.21607
1.21473
1.21332
1.21184
1.21028
1.20864
1.20693
1.20515
1.20329
1.20135
1.19934
1.19726
1.1951
1.19287
1.19057
1.18819
1.18574
1.18321
1.18061
1.17794
1.1752
1.17238
1.16949
1.16653
1.1635
1.16039
1.15721
1.15396
1.15064
1.14725
1.14379
1.14025
1.13665
1.13297
1.12923
1.12541
1.12153
1.11758
1.11356
1.10946
1.1053
1.10108
1.09678
1.09242
1.08798
1.08348
1.07892
1.07429
1.06959
1.06482
1.05999
1.05509
1.05013
1.04511
1.04001
1.03486
1.02964
1.02436
1.01901
1.0136
1.00813
1.00259
0.996997
0.991339
0.98562
0.979839
0.973998
0.968097
0.962136
0.956116
0.950036
0.943898
0.937701
0.931447
0.925134
0.918765
0.912338
0.905856
0.899317
0.892723
0.886073
0.879369
0.87261
0.865797
0.858931
0.852011
0.845039
0.838015
0.830938
0.82381
0.816632
0.809402
0.802123
0.794794
0.787416
0.779989
0.772514
0.764991
0.75742
0.749803
0.742139
0.734429
0.726674
0.718874
0.711029
0.70314
0.695208
0.687232
0.679214
0.671154
0.663052
1.23689
1.23684
1.23672
1.23652
1.23624
1.23589
1.23545
1.23495
1.23436
1.2337
1.23297
1.23215
1.23127
1.2303
1.22926
1.22814
1.22695
1.22568
1.22433
1.22291
1.22141
1.21984
1.21819
1.21647
1.21467
1.21279
1.21084
1.20882
1.20672
1.20455
1.2023
1.19997
1.19758
1.19511
1.19256
1.18994
1.18725
1.18448
1.18164
1.17873
1.17574
1.17269
1.16956
1.16635
1.16308
1.15973
1.15631
1.15282
1.14926
1.14563
1.14192
1.13815
1.1343
1.13039
1.1264
1.12235
1.11823
1.11403
1.10977
1.10544
1.10104
1.09658
1.09204
1.08744
1.08277
1.07803
1.07323
1.06836
1.06343