# vtk DataFile Version 3.0
Laplace Solution
ASCII
DATASET STRUCTURED_POINTS
DIMENSIONS 128 128 1
ORIGIN 0 0 0
SPACING 0.00787402 0.00787402 0
POINT_DATA 16384
SCALARS U double 1
LOOKUP_TABLE default
0
0
0
0
0
0
0
0
0
0
0
0
0
0
0
0
0
0
0
0
0
0
0
0
0
0
0
0
0
0
0
0
0
0
0
0
0
0
0
0
0
0
0
0
0
0
0
0
0
0
0
0
0
0
0
0
0
0
0
0
0
0
0
0
0
0
0
0
0
0
0
0
0
0
0
0
0
0
0
0
0
0
0
0
0
0
0
0
0
0
0
0
0
0
0
0
0
0
0
0
0
0
0
0
0
0
0
0
0
0
0
0
0
0
0
0
0
0
0
0
0
0
0
0
0
0
0
0
0
0.00122273
0.00244247
0.00365623
0.00486104
0.00605396
0.00723207
0.00839247
0.00953234
0.0106489
0.0117394
0.0128011
0.0138315
0.0148281
0.0157884
0.0167101
0.0175908
0.0184285
0.0192212
0.0199667
0.0206634
0.0213096
0.0219036
0.022444
0.0229295
0.0233588
0.023731
0.0240452
0.0243005
0.0244963
0.0246321
0.0247077
0.0247229
0.0246775
0.0245717
0.0244058
0.0241802
0.0238954
0.0235521
0.0231512
0.0226937
0.0221806
0.0216132
0.0209929
0.0203213
0.0195999
0.0188306
0.0180152
0.0171557
0.0162542
0.0153129
0.0143342
0.0133204
0.012274
0.0111975
0.0100937
0.00896515
0.00781466
0.00664505
0.00545917
0.00425994
0.00305028
0.00183316
0.000611552
-0.000611552
-0.00183316
-0.00305028
-0.00425994
-0.00545917
-0.00664505
-0.00781466
-0.00896515
-0.0100937
-0.0111975
-0.012274
-0.0133204
-0.0143342
-0.0153129
-0.0162542
-0.0171557
-0.0180152
-0.0188306
-0.0195999
-0.0203213
-0.0209929
-0.0216132
-0.0221806
-0.0226937
-0.0231512
-0.0235521
-0.0238954
-0.0241802
-0.0244058
-0.0245717
-0.0246775
-0.0247229
-0.0247077
-0.0246321
-0.0244963
-0.0243005
-0.0240452
-0.023731
-0.0233588
-0.0229295
-0.022444
-0.0219036
-0.0213096
-0.0206634
-0.0199667
-0.0192212
-0.0184285
-0.0175908
-0.0167101
-0.0157884
-0.0148281
-0.0138315
-0.0128011
-0.0117394
-0.0106489
-0.00953234
-0.00839247
-0.00723207
-0.00605396
-0.00486104
-0.00365623
-0.00244247
-0.00122273
0
0
0.00244247
0.00487896
0.00730351
0.00971019
0.0120931
0.0144464
0.0167644
0.0190413
0.0212717
0.02345
0.0255709
0.0276292
0.0296199
0.0315382
0.0333792
0.0351386
0.036812
0.0383953
0.0398846
0.0412763
0.042567
0.0437536
0.0448331
0.0458028
0.0466605
0.047404
0.0480315
0.0485414
0.0489326
0.049204
0.049355
0.0493852
0.0492946
0.0490833
0.0487519
0.0483012
0.0477324
0.0470467
0.0462458
0.0453318
0.0443069
0.0431735
0.0419345
0.0405929
0.0391519
0.0376151
0.0359863
0.0342694
0.0324686
0.0305884
0.0286333
0.0266082
0.0245179
0.0223677
0.0201627
0.0179084
0.0156102
0.0132738
0.010905
0.00850946
0.0060931
0.00366184
0.00122161
-0.00122161
-0.00366184
-0.0060931
-0.00850946
-0.010905
-0.0132738
-0.0156102
-0.0179084
-0.0201627
-0.0223677
-0.0245179
-0.0266082
-0.0286333
-0.0305884
-0.0324686
-0.0342694
-0.0359863
-0.0376151
-0.0391519
-0.0405929
-0.0419345
-0.0431735
-0.0443069
-0.0453318
-0.0462458
-0.0470467
-0.0477324
-0.0483012
-0.0487519
-0.0490833
-0.0492946
-0.0493852
-0.049355
-0.049204
-0.0489326
-0.0485414
-0.0480315
-0.047404
-0.0466605
-0.0458028
-0.0448331
-0.0437536
-0.042567
-0.0412763
-0.0398846
-0.0383953
-0.036812
-0.0351386
-0.0333792
-0.0315382
-0.0296199
-0.0276292
-0.0255709
-0.02345
-0.0212717
-0.0190413
-0.0167644
-0.0144464
-0.0120931
-0.00971019
-0.00730351
-0.00487896
-0.00244247
0
0
0.00365623
0.00730351
0.0109329
0.0145356
0.0181027
0.0216254
0.0250953
0.0285038
0.0318425
0.0351032
0.0382781
0.0413593
0.0443393
0.0472108
0.0499667
0.0526004
0.0551053
0.0574754
0.0597049
0.0617882
0.0637203
0.0654965
0.0671124
0.0685641
0.069848
0.070961
0.0719003
0.0726636
0.0732492
0.0736554
0.0738815
0.0739267
0.073791
0.0734748
0.0729787
0.0723041
0.0714525
0.070426
0.0692272
0.067859
0.0663248
0.0646282
0.0627735
0.0607651
0.0586081
0.0563076
0.0538693
0.0512992
0.0486036
0.045789
0.0428624
0.0398309
0.0367019
0.0334831
0.0301823
0.0268077
0.0233675
0.0198701
0.0163241
0.0127381
0.00912101
0.00548155
0.00182867
-0.00182867
-0.00548155
-0.00912101
-0.0127381
-0.0163241
-0.0198701
-0.0233675
-0.0268077
-0.0301823
-0.0334831
-0.0367019
-0.0398309
-0.0428624
-0.045789
-0.0486036
-0.0512992
-0.0538693
-0.0563076
-0.0586081
-0.0607651
-0.0627735
-0.0646282
-0.0663248
-0.067859
-0.0692272
-0.070426
-0.0714525
-0.0723041
-0.0729787
-0.0734748
-0.073791
-0.0739267
-0.0738815
-0.0736554
-0.0732492
-0.0726636
-0.0719003
-0.070961
-0.069848
-0.0685641
-0.0671124
-0.0654965
-0.0637203
-0.0617882
-0.0597049
-0.0574754
-0.0551053
-0.0526004
-0.0499667
-0.0472108
-0.0443393
-0.0413593
-0.0382781
-0.0351032
-0.0318425
-0.0285038
-0.0250953
-0.0216254
-0.0181027
-0.0145356
-0.0109329
-0.00730351
-0.00365623
0
0
0.00486104
0.00971019
0.0145356
0.0193254
0.0240679
0.0287515
0.0333648
0.0378964
0.0423353
0.0466706
0.0508916
0.0549882
0.0589501
0.0627678
0.0664319
0.0699334
0.0732638
0.0764149
0.079379
0.0821489
0.0847177
0.0870792
0.0892276
0.0911576
0.0928646
0.0943443
0.0955931
0.096608
0.0973865
0.0979266
0.0982272
0.0982873
0.0981069
0.0976865
0.0970269
0.09613
0.0949978
0.0936331
0.0920392
0.0902202
0.0881803
0.0859247
0.0834588
0.0807887
0.0779208
0.0748623
0.0716205
0.0682035
0.0646196
0.0608776
0.0569866
0.0529561
0.048796
0.0445166
0.0401281
0.0356415
0.0310677
0.0264178
0.0217033
0.0169357
0.0121266
0.00728785
0.00243127
-0.00243127
-0.00728785
-0.0121266
-0.0169357
-0.0217033
-0.0264178
-0.0310677
-0.0356415
-0.0401281
-0.0445166
-0.048796
-0.0529561
-0.0569866
-0.0608776
-0.0646196
-0.0682035
-0.0716205
-0.0748623
-0.0779208
-0.0807887
-0.0834588
-0.0859247
-0.0881803
-0.0902202
-0.0920392
-0.0936331
-0.0949978
-0.09613
-0.0970269
-0.0976865
-0.0981069
-0.0982873
-0.0982272
-0.0979266
-0.0973865
-0.096608
-0.0955931
-0.0943443
-0.0928646
-0.0911576
-0.0892276
-0.0870792
-0.0847177
-0.0821489
-0.079379
-0.0764149
-0.0732638
-0.0699334
-0.0664319
-0.0627678
-0.0589501
-0.0549882
-0.0508916
-0.0466706
-0.0423353
-0.0378964
-0.0333648
-0.0287515
-0.0240679
-0.0193254
-0.0145356
-0.00971019
-0.00486104
0
0
0.00605396
0.0120931
0.0181027
0.0240679
0.0299743
0.0358073
0.0415527
0.0471963
0.0527245
0.0581237
0.0633806
0.0684825
0.0734167
0.0781713
0.0827346
0.0870954
0.091243
0.0951674
0.0988589
0.102308
0.105508
0.108449
0.111124
0.113528
0.115654
0.117497
0.119052
0.120316
0.121285
0.121958
0.122332
0.122407
0.122183
0.121659
0.120838
0.119721
0.118311
0.116611
0.114626
0.112361
0.10982
0.107011
0.10394
0.100614
0.0970429
0.0932338
0.0891965
0.0849409
0.0804775
0.0758172
0.0709713
0.0659517
0.0607708
0.0554411
0.0499757
0.0443881
0.0386918
0.0329008
0.0270294
0.0210917
0.0151025
0.00907631
0.00302791
-0.00302791
-0.00907631
-0.0151025
-0.0210917
-0.0270294
-0.0329008
-0.0386918
-0.0443881
-0.0499757
-0.0554411
-0.0607708
-0.0659517
-0.0709713
-0.0758172
-0.0804775
-0.0849409
-0.0891965
-0.0932338
-0.0970429
-0.100614
-0.10394
-0.107011
-0.10982
-0.112361
-0.114626
-0.116611
-0.118311
-0.119721
-0.120838
-0.121659
-0.122183
-0.122407
-0.122332
-0.121958
-0.121285
-0.120316
-0.119052
-0.117497
-0.115654
-0.113528
-0.111124
-0.108449
-0.105508
-0.102308
-0.0988589
-0.0951674
-0.091243
-0.0870954
-0.0827346
-0.0781713
-0.0734167
-0.0684825
-0.0633806
-0.0581237
-0.0527245
-0.0471963
-0.0415527
-0.0358073
-0.0299743
-0.0240679
-0.0181027
-0.0120931
-0.00605396
0
0
0.00723207
0.0144464
0.0216254
0.0287515
0.0358073
0.0427754
0.0496388
0.0563808
0.0629848
0.0694346
0.0757145
0.0818092
0.0877036
0.0933834
0.0988347
0.104044
0.108999
0.113687
0.118097
0.122218
0.12604
0.129553
0.132749
0.135621
0.13816
0.140362
0.14222
0.143729
0.144888
0.145691
0.146138
0.146228
0.14596
0.145334
0.144353
0.143018
0.141334
0.139303
0.136932
0.134226
0.131191
0.127835
0.124167
0.120194
0.115927
0.111377
0.106554
0.10147
0.0961385
0.0905712
0.0847823
0.078786
0.0725968
0.0662299
0.059701
0.053026
0.0462212
0.0393034
0.0322893
0.0251962
0.0180415
0.0108426
0.00361714
-0.00361714
-0.0108426
-0.0180415
-0.0251962
-0.0322893
-0.0393034
-0.0462212
-0.053026
-0.059701
-0.0662299
-0.0725968
-0.078786
-0.0847823
-0.0905712
-0.0961385
-0.10147
-0.106554
-0.111377
-0.115927
-0.120194
-0.124167
-0.127835
-0.131191
-0.134226
-0.136932
-0.139303
-0.141334
-0.143018
-0.144353
-0.145334
-0.14596
-0.146228
-0.146138
-0.145691
-0.144888
-0.143729
-0.14222
-0.140362
-0.13816
-0.135621
-0.132749
-0.129553
-0.12604
-0.122218
-0.118097
-0.113687
-0.108999
-0.104044
-0.0988347
-0.0933834
-0.0877036
-0.0818092
-0.0757145
-0.0694346
-0.0629848
-0.0563808
-0.0496388
-0.0427754
-0.0358073
-0.0287515
-0.0216254
-0.0144464
-0.00723207
0
0
0.00839247
0.0167644
0.0250953
0.0333648
0.0415527
0.0496388
0.0576035
0.0654272
0.0730908
0.0805756
0.0878631
0.0949357
0.101776
0.108367
0.114693
0.120738
0.126488
0.131928
0.137046
0.141828
0.146263
0.15034
0.154049
0.157381
0.160328
0.162883
0.165039
0.166791
0.168135
0.169068
0.169587
0.169691
0.169379
0.168653
0.167515
0.165966
0.164011
0.161655
0.158903
0.155763
0.152241
0.148347
0.14409
0.13948
0.134528
0.129248
0.123651
0.117752
0.111564
0.105104
0.0983859
0.0914274
0.0842451
0.0768567
0.0692802
0.0615342
0.0536376
0.0456097
0.0374702
0.029239
0.0209363
0.0125823
0.00419752
-0.00419752
-0.0125823
-0.0209363
-0.029239
-0.0374702
-0.0456097
-0.0536376
-0.0615342
-0.0692802
-0.0768567
-0.0842451
-0.0914274
-0.0983859
-0.105104
-0.111564
-0.117752
-0.123651
-0.129248
-0.134528
-0.13948
-0.14409
-0.148347
-0.152241
-0.155763
-0.158903
-0.161655
-0.164011
-0.165966
-0.167515
-0.168653
-0.169379
-0.169691
-0.169587
-0.169068
-0.168135
-0.166791
-0.165039
-0.162883
-0.160328
-0.157381
-0.154049
-0.15034
-0.146263
-0.141828
-0.137046
-0.131928
-0.126488
-0.120738
-0.114693
-0.108367
-0.101776
-0.0949357
-0.0878631
-0.0805756
-0.0730908
-0.0654272
-0.0576035
-0.0496388
-0.0415527
-0.0333648
-0.0250953
-0.0167644
-0.00839247
0
0
0.00953234
0.0190413
0.0285038
0.0378964
0.0471963
0.0563808
0.0654272
0.0743136
0.083018
0.0915194
0.0997967
0.10783
0.115599
0.123086
0.130271
0.137137
0.143668
0.149847
0.155659
0.161091
0.166128
0.170759
0.174972
0.178757
0.182104
0.185006
0.187455
0.189445
0.190971
0.192031
0.19262
0.192738
0.192384
0.19156
0.190266
0.188507
0.186287
0.183611
0.180486
0.176919
0.172919
0.168495
0.16366
0.158424
0.1528
0.146802
0.140445
0.133745
0.126717
0.119379
0.111749
0.103845
0.0956873
0.0872954
0.0786899
0.0698918
0.0609226
0.0518044
0.0425594
0.0332103
0.0237798
0.0142912
0.00476763
-0.00476763
-0.0142912
-0.0237798
-0.0332103
-0.0425594
-0.0518044
-0.0609226
-0.0698918
-0.0786899
-0.0872954
-0.0956873
-0.103845
-0.111749
-0.119379
-0.126717
-0.133745
-0.140445
-0.146802
-0.1528
-0.158424
-0.16366
-0.168495
-0.172919
-0.176919
-0.180486
-0.183611
-0.186287
-0.188507
-0.190266
-0.19156
-0.192384
-0.192738
-0.19262
-0.192031
-0.190971
-0.189445
-0.187455
-0.185006
-0.182104
-0.178757
-0.174972
-0.170759
-0.166128
-0.161091
-0.155659
-0.149847
-0.143668
-0.137137
-0.130271
-0.123086
-0.115599
-0.10783
-0.0997967
-0.0915194
-0.083018
-0.0743136
-0.0654272
-0.0563808
-0.0471963
-0.0378964
-0.0285038
-0.0190413
-0.00953234
0
0
0.0106489
0.0212717
0.0318425
0.0423353
0.0527245
0.0629848
0.0730908
0.083018
0.0927421
0.102239
0.111486
0.12046
0.129139
0.137503
0.145529
0.1532
0.160496
0.167399
0.173892
0.17996
0.185587
0.190761
0.195467
0.199695
0.203434
0.206676
0.209412
0.211635
0.21334
0.214524
0.215182
0.215314
0.214919
0.213997
0.212553
0.210588
0.208107
0.205118
0.201626
0.197641
0.193173
0.188232
0.18283
0.17698
0.170698
0.163998
0.156896
0.149411
0.141559
0.133362
0.124838
0.116009
0.106895
0.0975205
0.087907
0.0780783
0.0680586
0.0578724
0.0475445
0.0371002
0.0265652
0.0159652
0.00532607
-0.00532607
-0.0159652
-0.0265652
-0.0371002
-0.0475445
-0.0578724
-0.0680586
-0.0780783
-0.087907
-0.0975205
-0.106895
-0.116009
-0.124838
-0.133362
-0.141559
-0.149411
-0.156896
-0.163998
-0.170698
-0.17698
-0.18283
-0.188232
-0.193173
-0.197641
-0.201626
-0.205118
-0.208107
-0.210588
-0.212553
-0.213997
-0.214919
-0.215314
-0.215182
-0.214524
-0.21334
-0.211635
-0.209412
-0.206676
-0.203434
-0.199695
-0.195467
-0.190761
-0.185587
-0.17996
-0.173892
-0.167399
-0.160496
-0.1532
-0.145529
-0.137503
-0.129139
-0.12046
-0.111486
-0.102239
-0.0927421
-0.083018
-0.0730908
-0.0629848
-0.0527245
-0.0423353
-0.0318425
-0.0212717
-0.0106489
0
0
0.0117394
0.02345
0.0351032
0.0466706
0.0581237
0.0694346
0.0805756
0.0915194
0.102239
0.112709
0.122903
0.132796
0.142364
0.151583
0.160432
0.168888
0.176931
0.184541
0.191699
0.198388
0.204592
0.210295
0.215483
0.220144
0.224267
0.22784
0.230856
0.233307
0.235187
0.236492
0.237217
0.237363
0.236927
0.235911
0.234319
0.232153
0.229418
0.226123
0.222274
0.217881
0.212954
0.207507
0.201552
0.195104
0.188178
0.180791
0.172963
0.164711
0.156056
0.147019
0.137622
0.127888
0.117842
0.107507
0.0969089
0.0860738
0.075028
0.0637987
0.0524132
0.0408994
0.0292856
0.0176001
0.00587148
-0.00587148
-0.0176001
-0.0292856
-0.0408994
-0.0524132
-0.0637987
-0.075028
-0.0860738
-0.0969089
-0.107507
-0.117842
-0.127888
-0.137622
-0.147019
-0.156056
-0.164711
-0.172963
-0.180791
-0.188178
-0.195104
-0.201552
-0.207507
-0.212954
-0.217881
-0.222274
-0.226123
-0.229418
-0.232153
-0.234319
-0.235911
-0.236927
-0.237363
-0.237217
-0.236492
-0.235187
-0.233307
-0.230856
-0.22784
-0.224267
-0.220144
-0.215483
-0.210295
-0.204592
-0.198388
-0.191699
-0.184541
-0.176931
-0.168888
-0.160432
-0.151583
-0.142364
-0.132796
-0.122903
-0.112709
-0.102239
-0.0915194
-0.0805756
-0.0694346
-0.0581237
-0.0466706
-0.0351032
-0.02345
-0.0117394
0
0
0.0128011
0.0255709
0.0382781
0.0508916
0.0633806
0.0757145
0.0878631
0.0997967
0.111486
0.122903
0.134018
0.144806
0.15524
0.165293
0.174942
0.184163
0.192934
0.201232
0.209037
0.216331
0.223096
0.229315
0.234973
0.240055
0.24455
0.248447
0.251736
0.254408
0.256458
0.257881
0.258672
0.258831
0.258355
0.257248
0.255511
0.253149
0.250168
0.246574
0.242377
0.237587
0.232215
0.226275
0.219781
0.212749
0.205197
0.197143
0.188606
0.179608
0.17017
0.160316
0.150069
0.139455
0.1285
0.11723
0.105674
0.0938586
0.0818139
0.0695689
0.0571536
0.0445985
0.0319343
0.0191919
0.00640251
-0.00640251
-0.0191919
-0.0319343
-0.0445985
-0.0571536
-0.0695689
-0.0818139
-0.0938586
-0.105674
-0.11723
-0.1285
-0.139455
-0.150069
-0.160316
-0.17017
-0.179608
-0.188606
-0.197143
-0.205197
-0.212749
-0.219781
-0.226275
-0.232215
-0.237587
-0.242377
-0.246574
-0.250168
-0.253149
-0.255511
-0.257248
-0.258355
-0.258831
-0.258672
-0.257881
-0.256458
-0.254408
-0.251736
-0.248447
-0.24455
-0.240055
-0.234973
-0.229315
-0.223096
-0.216331
-0.209037
-0.201232
-0.192934
-0.184163
-0.174942
-0.165293
-0.15524
-0.144806
-0.134018
-0.122903
-0.111486
-0.0997967
-0.0878631
-0.0757145
-0.0633806
-0.0508916
-0.0382781
-0.0255709
-0.0128011
0
0
0.0138315
0.0276292
0.0413593
0.0549882
0.0684825
0.0818092
0.0949357
0.10783
0.12046
0.132796
0.144806
0.156462
0.167736
0.178599
0.189024
0.198987
0.208464
0.21743
0.225864
0.233745
0.241054
0.247774
0.253887
0.259378
0.264235
0.268446
0.271999
0.274887
0.277102
0.278639
0.279494
0.279665
0.279152
0.277955
0.276079
0.273527
0.270305
0.266422
0.261887
0.256711
0.250907
0.244489
0.237472
0.229875
0.221715
0.213012
0.203788
0.194065
0.183868
0.17322
0.162149
0.15068
0.138843
0.126667
0.11418
0.101414
0.0883995
0.0751688
0.0617542
0.0481885
0.0345048
0.0207367
0.00691789
-0.00691789
-0.0207367
-0.0345048
-0.0481885
-0.0617542
-0.0751688
-0.0883995
-0.101414
-0.11418
-0.126667
-0.138843
-0.15068
-0.162149
-0.17322
-0.183868
-0.194065
-0.203788
-0.213012
-0.221715
-0.229875
-0.237472
-0.244489
-0.250907
-0.256711
-0.261887
-0.266422
-0.270305
-0.273527
-0.276079
-0.277955
-0.279152
-0.279665
-0.279494
-0.278639
-0.277102
-0.274887
-0.271999
-0.268446
-0.264235
-0.259378
-0.253887
-0.247774
-0.241054
-0.233745
-0.225864
-0.21743
-0.208464
-0.198987
-0.189024
-0.178599
-0.167736
-0.156462
-0.144806
-0.132796
-0.12046
-0.10783
-0.0949357
-0.0818092
-0.0684825
-0.0549882
-0.0413593
-0.0276292
-0.0138315
0
0
0.0148281
0.0296199
0.0443393
0.0589501
0.0734167
0.0877036
0.101776
0.115599
0.129139
0.142364
0.15524
0.167736
0.179821
0.191467
0.202644
0.213325
0.223484
0.233096
0.242138
0.250587
0.258423
0.265626
0.272179
0.278067
0.283274
0.287787
0.291597
0.294693
0.297067
0.298715
0.299632
0.299815
0.299265
0.297982
0.295971
0.293235
0.289781
0.285618
0.280756
0.275207
0.268985
0.262104
0.254582
0.246437
0.237689
0.22836
0.218471
0.208048
0.197116
0.185701
0.173832
0.161537
0.148847
0.135793
0.122407
0.108721
0.0947688
0.0805848
0.0662037
0.0516605
0.0369909
0.0222308
0.00741633
-0.00741633
-0.0222308
-0.0369909
-0.0516605
-0.0662037
-0.0805848
-0.0947688
-0.108721
-0.122407
-0.135793
-0.148847
-0.161537
-0.173832
-0.185701
-0.197116
-0.208048
-0.218471
-0.22836
-0.237689
-0.246437
-0.254582
-0.262104
-0.268985
-0.275207
-0.280756
-0.285618
-0.289781
-0.293235
-0.295971
-0.297982
-0.299265
-0.299815
-0.299632
-0.298715
-0.297067
-0.294693
-0.291597
-0.287787
-0.283274
-0.278067
-0.272179
-0.265626
-0.258423
-0.250587
-0.242138
-0.233096
-0.223484
-0.213325
-0.202644
-0.191467
-0.179821
-0.167736
-0.15524
-0.142364
-0.129139
-0.115599
-0.101776
-0.0877036
-0.0734167
-0.0589501
-0.0443393
-0.0296199
-0.0148281
0
0
0.0157884
0.0315382
0.0472108
0.0627678
0.0781713
0.0933834
0.108367
0.123086
0.137503
0.151583
0.165293
0.178599
0.191467
0.203866
0.215767
0.22714
0.237957
0.248191
0.257819
0.266815
0.275158
0.282828
0.289806
0.296075
0.301619
0.306425
0.310481
0.313777
0.316306
0.31806
0.319036
0.319232
0.318646
0.31728
0.315138
0.312225
0.308547
0.304115
0.298938
0.29303
0.286405
0.279079
0.27107
0.262397
0.253083
0.243149
0.23262
0.221521
0.209881
0.197727
0.185089
0.171999
0.158487
0.144587
0.130334
0.115762
0.100906
0.0858036
0.0704911
0.0550061
0.0393865
0.0236705
0.00789662
-0.00789662
-0.0236705
-0.0393865
-0.0550061
-0.0704911
-0.0858036
-0.100906
-0.115762
-0.130334
-0.144587
-0.158487
-0.171999
-0.185089
-0.197727
-0.209881
-0.221521
-0.23262
-0.243149
-0.253083
-0.262397
-0.27107
-0.279079
-0.286405
-0.29303
-0.298938
-0.304115
-0.308547
-0.312225
-0.315138
-0.31728
-0.318646
-0.319232
-0.319036
-0.31806
-0.316306
-0.313777
-0.310481
-0.306425
-0.301619
-0.296075
-0.289806
-0.282828
-0.275158
-0.266815
-0.257819
-0.248191
-0.237957
-0.22714
-0.215767
-0.203866
-0.191467
-0.178599
-0.165293
-0.151583
-0.137503
-0.123086
-0.108367
-0.0933834
-0.0781713
-0.0627678
-0.0472108
-0.0315382
-0.0157884
0
0
0.0167101
0.0333792
0.0499667
0.0664319
0.0827346
0.0988347
0.114693
0.130271
0.145529
0.160432
0.174942
0.189024
0.202644
0.215767
0.228363
0.240399
0.251848
0.26268
0.272869
0.28239
0.291221
0.299339
0.306724
0.313358
0.319226
0.324313
0.328606
0.332094
0.33477
0.336627
0.33766
0.337867
0.337247
0.335802
0.333534
0.330451
0.326559
0.321868
0.316389
0.310136
0.303124
0.29537
0.286893
0.277715
0.267856
0.257342
0.246199
0.234453
0.222133
0.209269
0.195894
0.182039
0.167739
0.153028
0.137942
0.122519
0.106797
0.0908124
0.0746061
0.0582171
0.0416857
0.0250523
0.00835759
-0.00835759
-0.0250523
-0.0416857
-0.0582171
-0.0746061
-0.0908124
-0.106797
-0.122519
-0.137942
-0.153028
-0.167739
-0.182039
-0.195894
-0.209269
-0.222133
-0.234453
-0.246199
-0.257342
-0.267856
-0.277715
-0.286893
-0.29537
-0.303124
-0.310136
-0.316389
-0.321868
-0.326559
-0.330451
-0.333534
-0.335802
-0.337247
-0.337867
-0.33766
-0.336627
-0.33477
-0.332094
-0.328606
-0.324313
-0.319226
-0.313358
-0.306724
-0.299339
-0.291221
-0.28239
-0.272869
-0.26268
-0.251848
-0.240399
-0.228363
-0.215767
-0.202644
-0.189024
-0.174942
-0.160432
-0.145529
-0.130271
-0.114693
-0.0988347
-0.0827346
-0.0664319
-0.0499667
-0.0333792
-0.0167101
0
0
0.0175908
0.0351386
0.0526004
0.0699334
0.0870954
0.104044
0.120738
0.137137
0.1532
0.168888
0.184163
0.198987
0.213325
0.22714
0.240399
0.25307
0.265122
0.276525
0.287251
0.297275
0.306571
0.315116
0.322891
0.329875
0.336052
0.341407
0.345926
0.349599
0.352416
0.35437
0.355458
0.355675
0.355023
0.353501
0.351115
0.347869
0.343771
0.338833
0.333065
0.326483
0.319101
0.310939
0.302015
0.292353
0.281975
0.270907
0.259176
0.24681
0.233841
0.2203
0.206219
0.191634
0.17658
0.161094
0.145213
0.128977
0.112426
0.095599
0.0785384
0.0612857
0.0438829
0.0263728
0.0087981
-0.0087981
-0.0263728
-0.0438829
-0.0612857
-0.0785384
-0.095599
-0.112426
-0.128977
-0.145213
-0.161094
-0.17658
-0.191634
-0.206219
-0.2203
-0.233841
-0.24681
-0.259176
-0.270907
-0.281975
-0.292353
-0.302015
-0.310939
-0.319101
-0.326483
-0.333065
-0.338833
-0.343771
-0.347869
-0.351115
-0.353501
-0.355023
-0.355675
-0.355458
-0.35437
-0.352416
-0.349599
-0.345926
-0.341407
-0.336052
-0.329875
-0.322891
-0.315116
-0.306571
-0.297275
-0.287251
-0.276525
-0.265122
-0.25307
-0.240399
-0.22714
-0.213325
-0.198987
-0.184163
-0.168888
-0.1532
-0.137137
-0.120738
-0.104044
-0.0870954
-0.0699334
-0.0526004
-0.0351386
-0.0175908
0
0
0.0184285
0.036812
0.0551053
0.0732638
0.091243
0.108999
0.126488
0.143668
0.160496
0.176931
0.192934
0.208464
0.223484
0.237957
0.251848
0.265122
0.277748
0.289694
0.300931
0.311432
0.32117
0.330123
0.338267
0.345584
0.352056
0.357665
0.3624
0.366247
0.369198
0.371246
0.372386
0.372614
0.37193
0.370336
0.367835
0.364435
0.360143
0.354969
0.348927
0.342031
0.334297
0.325746
0.316398
0.306275
0.295403
0.283808
0.271518
0.258564
0.244977
0.230791
0.21604
0.20076
0.184989
0.168765
0.152128
0.135119
0.11778
0.100152
0.0822786
0.0642042
0.0459727
0.0276287
0.00921709
-0.00921709
-0.0276287
-0.0459727
-0.0642042
-0.0822786
-0.100152
-0.11778
-0.135119
-0.152128
-0.168765
-0.184989
-0.20076
-0.21604
-0.230791
-0.244977
-0.258564
-0.271518
-0.283808
-0.295403
-0.306275
-0.316398
-0.325746
-0.334297
-0.342031
-0.348927
-0.354969
-0.360143
-0.364435
-0.367835
-0.370336
-0.37193
-0.372614
-0.372386
-0.371246
-0.369198
-0.366247
-0.3624
-0.357665
-0.352056
-0.345584
-0.338267
-0.330123
-0.32117
-0.311432
-0.300931
-0.289694
-0.277748
-0.265122
-0.251848
-0.237957
-0.223484
-0.208464
-0.192934
-0.176931
-0.160496
-0.143668
-0.126488
-0.108999
-0.091243
-0.0732638
-0.0551053
-0.036812
-0.0184285
0
0
0.0192212
0.0383953
0.0574754
0.0764149
0.0951674
0.113687
0.131928
0.149847
0.167399
0.184541
0.201232
0.21743
0.233096
0.248191
0.26268
0.276525
0.289694
0.302154
0.313874
0.324826
0.334984
0.344321
0.352816
0.360448
0.367198
0.373049
0.377987
0.382
0.385078
0.387214
0.388402
0.38864
0.387926
0.386264
0.383656
0.380109
0.375632
0.370236
0.363934
0.356741
0.348676
0.339757
0.330006
0.319448
0.308108
0.296014
0.283196
0.269685
0.255514
0.240717
0.225332
0.209395
0.192945
0.176024
0.158671
0.140931
0.122845
0.104459
0.0858174
0.0669657
0.04795
0.028817
0.00961352
-0.00961352
-0.028817
-0.04795
-0.0669657
-0.0858174
-0.104459
-0.122845
-0.140931
-0.158671
-0.176024
-0.192945
-0.209395
-0.225332
-0.240717
-0.255514
-0.269685
-0.283196
-0.296014
-0.308108
-0.319448
-0.330006
-0.339757
-0.348676
-0.356741
-0.363934
-0.370236
-0.375632
-0.380109
-0.383656
-0.386264
-0.387926
-0.38864
-0.388402
-0.387214
-0.385078
-0.382
-0.377987
-0.373049
-0.367198
-0.360448
-0.352816
-0.344321
-0.334984
-0.324826
-0.313874
-0.302154
-0.289694
-0.276525
-0.26268
-0.248191
-0.233096
-0.21743
-0.201232
-0.184541
-0.167399
-0.149847
-0.131928
-0.113687
-0.0951674
-0.0764149
-0.0574754
-0.0383953
-0.0192212
0
0
0.0199667
0.0398846
0.0597049
0.079379
0.0988589
0.118097
0.137046
0.155659
0.173892
0.191699
0.209037
0.225864
0.242138
0.257819
0.272869
0.287251
0.300931
0.313874
0.326049
0.337426
0.347978
0.357677
0.366502
0.37443
0.381441
0.387519
0.392648
0.396817
0.400015
0.402233
0.403468
0.403715
0.402974
0.401247
0.398538
0.394854
0.390203
0.384598
0.378051
0.370579
0.362201
0.352936
0.342807
0.331839
0.32006
0.307497
0.294181
0.280146
0.265425
0.250055
0.234072
0.217517
0.20043
0.182852
0.164826
0.146397
0.12761
0.108511
0.0891462
0.0695632
0.04981
0.0299348
0.00998642
-0.00998642
-0.0299348
-0.04981
-0.0695632
-0.0891462
-0.108511
-0.12761
-0.146397
-0.164826
-0.182852
-0.20043
-0.217517
-0.234072
-0.250055
-0.265425
-0.280146
-0.294181
-0.307497
-0.32006
-0.331839
-0.342807
-0.352936
-0.362201
-0.370579
-0.378051
-0.384598
-0.390203
-0.394854
-0.398538
-0.401247
-0.402974
-0.403715
-0.403468
-0.402233
-0.400015
-0.396817
-0.392648
-0.387519
-0.381441
-0.37443
-0.366502
-0.357677
-0.347978
-0.337426
-0.326049
-0.313874
-0.300931
-0.287251
-0.272869
-0.257819
-0.242138
-0.225864
-0.209037
-0.191699
-0.173892
-0.155659
-0.137046
-0.118097
-0.0988589
-0.079379
-0.0597049
-0.0398846
-0.0199667
0
0
0.0206634
0.0412763
0.0617882
0.0821489
0.102308
0.122218
0.141828
0.161091
0.17996
0.198388
0.216331
0.233745
0.250587
0.266815
0.28239
0.297275
0.311432
0.324826
0.337426
0.3492
0.36012
0.370158
0.379291
0.387495
0.394751
0.401041
0.406349
0.410664
0.413973
0.416269
0.417546
0.417802
0.417035
0.415248
0.412444
0.408632
0.403819
0.398018
0.391243
0.38351
0.374839
0.365251
0.354769
0.343418
0.331228
0.318226
0.304446
0.289921
0.274687
0.25878
0.24224
0.225107
0.207423
0.189232
0.170578
0.151506
0.132063
0.112297
0.0922569
0.0719906
0.051548
0.0309794
0.0103349
-0.0103349
-0.0309794
-0.051548
-0.0719906
-0.0922569
-0.112297
-0.132063
-0.151506
-0.170578
-0.189232
-0.207423
-0.225107
-0.24224
-0.25878
-0.274687
-0.289921
-0.304446
-0.318226
-0.331228
-0.343418
-0.354769
-0.365251
-0.374839
-0.38351
-0.391243
-0.398018
-0.403819
-0.408632
-0.412444
-0.415248
-0.417035
-0.417802
-0.417546
-0.416269
-0.413973
-0.410664
-0.406349
-0.401041
-0.394751
-0.387495
-0.379291
-0.370158
-0.36012
-0.3492
-0.337426
-0.324826
-0.311432
-0.297275
-0.28239
-0.266815
-0.250587
-0.233745
-0.216331
-0.198388
-0.17996
-0.161091
-0.141828
-0.122218
-0.102308
-0.0821489
-0.0617882
-0.0412763
-0.0206634
0
0
0.0213096
0.042567
0.0637203
0.0847177
0.105508
0.12604
0.146263
0.166128
0.185587
0.204592
0.223096
0.241054
0.258423
0.275158
0.291221
0.306571
0.32117
0.334984
0.347978
0.36012
0.371381
0.381733
0.391151
0.399612
0.407095
0.413582
0.419056
0.423505
0.426918
0.429286
0.430603
0.430867
0.430076
0.428233
0.425342
0.42141
0.416446
0.410464
0.403477
0.395503
0.38656
0.376672
0.365862
0.354157
0.341585
0.328177
0.313966
0.298987
0.283276
0.266872
0.249815
0.232146
0.21391
0.195149
0.175912
0.156243
0.136193
0.115809
0.0951418
0.0742417
0.05316
0.0319481
0.0106581
-0.0106581
-0.0319481
-0.05316
-0.0742417
-0.0951418
-0.115809
-0.136193
-0.156243
-0.175912
-0.195149
-0.21391
-0.232146
-0.249815
-0.266872
-0.283276
-0.298987
-0.313966
-0.328177
-0.341585
-0.354157
-0.365862
-0.376672
-0.38656
-0.395503
-0.403477
-0.410464
-0.416446
-0.42141
-0.425342
-0.428233
-0.430076
-0.430867
-0.430603
-0.429286
-0.426918
-0.423505
-0.419056
-0.413582
-0.407095
-0.399612
-0.391151
-0.381733
-0.371381
-0.36012
-0.347978
-0.334984
-0.32117
-0.306571
-0.291221
-0.275158
-0.258423
-0.241054
-0.223096
-0.204592
-0.185587
-0.166128
-0.146263
-0.12604
-0.105508
-0.0847177
-0.0637203
-0.042567
-0.0213096
0
0
0.0219036
0.0437536
0.0654965
0.0870792
0.108449
0.129553
0.15034
0.170759
0.190761
0.210295
0.229315
0.247774
0.265626
0.282828
0.299339
0.315116
0.330123
0.344321
0.357677
0.370158
0.381733
0.392374
0.402054
0.410751
0.418443
0.42511
0.430737
0.43531
0.438818
0.441252
0.442606
0.442877
0.442064
0.44017
0.437198
0.433156
0.428055
0.421905
0.414724
0.406527
0.397336
0.387172
0.376061
0.364029
0.351107
0.337325
0.322718
0.307321
0.291173
0.274311
0.256778
0.238617
0.219872
0.200589
0.180815
0.160599
0.139989
0.119037
0.0977939
0.0763112
0.0546418
0.0328386
0.0109552
-0.0109552
-0.0328386
-0.0546418
-0.0763112
-0.0977939
-0.119037
-0.139989
-0.160599
-0.180815
-0.200589
-0.219872
-0.238617
-0.256778
-0.274311
-0.291173
-0.307321
-0.322718
-0.337325
-0.351107
-0.364029
-0.376061
-0.387172
-0.397336
-0.406527
-0.414724
-0.421905
-0.428055
-0.433156
-0.437198
-0.44017
-0.442064
-0.442877
-0.442606
-0.441252
-0.438818
-0.43531
-0.430737
-0.42511
-0.418443
-0.410751
-0.402054
-0.392374
-0.381733
-0.370158
-0.357677
-0.344321
-0.330123
-0.315116
-0.299339
-0.282828
-0.265626
-0.247774
-0.229315
-0.210295
-0.190761
-0.170759
-0.15034
-0.129553
-0.108449
-0.0870792
-0.0654965
-0.0437536
-0.0219036
0
0
0.022444
0.0448331
0.0671124
0.0892276
0.111124
0.132749
0.154049
0.174972
0.195467
0.215483
0.234973
0.253887
0.272179
0.289806
0.306724
0.322891
0.338267
0.352816
0.366502
0.379291
0.391151
0.402054
0.411974
0.420885
0.428766
0.435598
0.441364
0.44605
0.449645
0.452139
0.453526
0.453804
0.452971
0.45103
0.447984
0.443843
0.438615
0.432315
0.424956
0.416557
0.407139
0.396724
0.385339
0.37301
0.359769
0.345648
0.33068
0.314904
0.298356
0.281079
0.263114
0.244504
0.225297
0.205538
0.185276
0.164561
0.143443
0.121974
0.100207
0.0781939
0.0559899
0.0336488
0.0112254
-0.0112254
-0.0336488
-0.0559899
-0.0781939
-0.100207
-0.121974
-0.143443
-0.164561
-0.185276
-0.205538
-0.225297
-0.244504
-0.263114
-0.281079
-0.298356
-0.314904
-0.33068
-0.345648
-0.359769
-0.37301
-0.385339
-0.396724
-0.407139
-0.416557
-0.424956
-0.432315
-0.438615
-0.443843
-0.447984
-0.45103
-0.452971
-0.453804
-0.453526
-0.452139
-0.449645
-0.44605
-0.441364
-0.435598
-0.428766
-0.420885
-0.411974
-0.402054
-0.391151
-0.379291
-0.366502
-0.352816
-0.338267
-0.322891
-0.306724
-0.289806
-0.272179
-0.253887
-0.234973
-0.215483
-0.195467
-0.174972
-0.154049
-0.132749
-0.111124
-0.0892276
-0.0671124
-0.0448331
-0.022444
0
0
0.0229295
0.0458028
0.0685641
0.0911576
0.113528
0.135621
0.157381
0.178757
0.199695
0.220144
0.240055
0.259378
0.278067
0.296075
0.313358
0.329875
0.345584
0.360448
0.37443
0.387495
0.399612
0.410751
0.420885
0.429989
0.438041
0.445021
0.450911
0.455699
0.459371
0.461919
0.463336
0.46362
0.462769
0.460786
0.457675
0.453444
0.448103
0.441666
0.434148
0.425567
0.415945
0.405306
0.393674
0.381079
0.367551
0.353124
0.337833
0.321715
0.30481
0.287159
0.268805
0.249793
0.23017
0.209984
0.189284
0.168121
0.146546
0.124612
0.102374
0.0798853
0.057201
0.0343767
0.0114682
-0.0114682
-0.0343767
-0.057201
-0.0798853
-0.102374
-0.124612
-0.146546
-0.168121
-0.189284
-0.209984
-0.23017
-0.249793
-0.268805
-0.287159
-0.30481
-0.321715
-0.337833
-0.353124
-0.367551
-0.381079
-0.393674
-0.405306
-0.415945
-0.425567
-0.434148
-0.441666
-0.448103
-0.453444
-0.457675
-0.460786
-0.462769
-0.46362
-0.463336
-0.461919
-0.459371
-0.455699
-0.450911
-0.445021
-0.438041
-0.429989
-0.420885
-0.410751
-0.399612
-0.387495